/*--------------------------------*- C++ -*----------------------------------*\
  =========                 |
  \\      /  F ield         | OpenFOAM: The Open Source CFD Toolbox
   \\    /   O peration     | Website:  https://openfoam.org
    \\  /    A nd           | Version:  7
     \\/     M anipulation  |
\*---------------------------------------------------------------------------*/
FoamFile
{
    version     2.0;
    format      ascii;
    class       volVectorField;
    location    "4.75";
    object      U;
}
// * * * * * * * * * * * * * * * * * * * * * * * * * * * * * * * * * * * * * //

dimensions      [0 1 -1 0 0 0 0];

internalField   nonuniform List<vector> 
7784
(
(1.18886 -2.02641e-05 -1.99962e-05)
(1.18888 -1.74846e-05 -1.56302e-05)
(1.18891 -1.37413e-05 -9.27816e-06)
(1.18893 -1.01998e-05 -3.54346e-06)
(1.18893 -7.32232e-06 -2.46071e-08)
(1.18893 -5.17356e-06 1.3796e-06)
(1.18893 -3.6387e-06 1.53371e-06)
(1.18886 -1.33844e-05 -1.65814e-05)
(1.18889 -1.15315e-05 -1.29941e-05)
(1.18891 -9.44158e-06 -7.74775e-06)
(1.18893 -7.53072e-06 -2.83574e-06)
(1.18893 -5.84025e-06 2.39359e-07)
(1.18893 -4.42319e-06 1.44581e-06)
(1.18893 -3.30379e-06 1.52094e-06)
(1.18887 -7.37172e-06 -1.38469e-05)
(1.18889 -6.97037e-06 -1.08172e-05)
(1.18892 -6.37488e-06 -6.38756e-06)
(1.18893 -5.57447e-06 -2.15502e-06)
(1.18893 -4.64849e-06 5.15926e-07)
(1.18893 -3.73251e-06 1.52867e-06)
(1.18893 -2.92298e-06 1.5192e-06)
(1.18887 -4.87097e-06 -1.24158e-05)
(1.1889 -4.88667e-06 -9.64476e-06)
(1.18892 -4.73416e-06 -5.61578e-06)
(1.18893 -4.33404e-06 -1.74714e-06)
(1.18893 -3.76329e-06 6.9147e-07)
(1.18893 -3.13675e-06 1.58409e-06)
(1.18893 -2.53316e-06 1.51535e-06)
(1.18887 -3.76967e-06 -1.18518e-05)
(1.1889 -3.79969e-06 -9.17461e-06)
(1.18892 -3.70716e-06 -5.29862e-06)
(1.18893 -3.43782e-06 -1.57886e-06)
(1.18893 -3.04294e-06 7.61608e-07)
(1.18893 -2.59571e-06 1.60586e-06)
(1.18893 -2.14179e-06 1.50531e-06)
(1.18887 -3.03097e-06 -1.16999e-05)
(1.1889 -3.02452e-06 -9.04797e-06)
(1.18892 -2.926e-06 -5.21465e-06)
(1.18893 -2.71209e-06 -1.53939e-06)
(1.18893 -2.41766e-06 7.72411e-07)
(1.18893 -2.08768e-06 1.60452e-06)
(1.18893 -1.7473e-06 1.49369e-06)
(1.18888 -2.37657e-06 -1.1695e-05)
(1.1889 -2.34729e-06 -9.04477e-06)
(1.18892 -2.2455e-06 -5.21542e-06)
(1.18893 -2.0698e-06 -1.54618e-06)
(1.18893 -1.84645e-06 7.62991e-07)
(1.18894 -1.60388e-06 1.59756e-06)
(1.18893 -1.35351e-06 1.48369e-06)
(0.652003 -4.95442e-05 -6.72663e-05)
(0.652047 -4.3559e-05 -5.71712e-05)
(0.652091 -3.4663e-05 -4.0352e-05)
(0.652123 -2.56665e-05 -2.33653e-05)
(0.652145 -1.82311e-05 -1.14054e-05)
(0.652159 -1.27185e-05 -4.96429e-06)
(0.652168 -8.82523e-06 -2.20839e-06)
(0.652014 -4.0008e-05 -5.96556e-05)
(0.652057 -3.54933e-05 -5.152e-05)
(0.652097 -2.90178e-05 -3.70834e-05)
(0.652127 -2.2334e-05 -2.17707e-05)
(0.652147 -1.65341e-05 -1.07113e-05)
(0.65216 -1.19919e-05 -4.69453e-06)
(0.652169 -8.62266e-06 -2.12702e-06)
(0.652026 -2.95075e-05 -5.26254e-05)
(0.652067 -2.72417e-05 -4.59089e-05)
(0.652105 -2.33115e-05 -3.34389e-05)
(0.652132 -1.87513e-05 -1.9754e-05)
(0.652151 -1.44617e-05 -9.70571e-06)
(0.652163 -1.08822e-05 -4.22433e-06)
(0.652171 -8.08236e-06 -1.92126e-06)
(0.652034 -2.21809e-05 -4.81567e-05)
(0.652074 -2.09479e-05 -4.21437e-05)
(0.652111 -1.84572e-05 -3.07905e-05)
(0.652137 -1.53298e-05 -1.81517e-05)
(0.652155 -1.22159e-05 -8.82348e-06)
(0.652166 -9.48063e-06 -3.76102e-06)
(0.652173 -7.23912e-06 -1.68575e-06)
(0.65204 -1.69152e-05 -4.58019e-05)
(0.652079 -1.60931e-05 -4.00874e-05)
(0.652116 -1.43996e-05 -2.92596e-05)
(0.652141 -1.2226e-05 -1.7159e-05)
(0.652158 -9.9929e-06 -8.22987e-06)
(0.652168 -7.95249e-06 -3.41576e-06)
(0.652175 -6.2125e-06 -1.4905e-06)
(0.652044 -1.27911e-05 -4.47021e-05)
(0.652083 -1.21985e-05 -3.9096e-05)
(0.652119 -1.10129e-05 -2.84793e-05)
(0.652143 -9.49301e-06 -1.66148e-05)
(0.65216 -7.90422e-06 -7.87443e-06)
(0.65217 -6.41122e-06 -3.18763e-06)
(0.652177 -5.09711e-06 -1.34659e-06)
(0.652046 -9.3967e-06 -4.42139e-05)
(0.652085 -8.96862e-06 -3.86379e-05)
(0.652121 -8.13838e-06 -2.80945e-05)
(0.652145 -7.08373e-06 -1.6324e-05)
(0.652161 -5.9727e-06 -7.66638e-06)
(0.652172 -4.90978e-06 -3.04048e-06)
(0.652178 -3.95432e-06 -1.24535e-06)
(0.299487 -5.44082e-05 -0.00011424)
(0.299523 -4.82624e-05 -0.000103924)
(0.299559 -3.88716e-05 -8.21735e-05)
(0.299589 -2.91383e-05 -5.67902e-05)
(0.299614 -2.09555e-05 -3.61748e-05)
(0.299634 -1.47867e-05 -2.25753e-05)
(0.299649 -1.03429e-05 -1.45183e-05)
(0.299496 -4.76619e-05 -0.00010631)
(0.299531 -4.26339e-05 -9.79825e-05)
(0.299565 -3.50339e-05 -7.84016e-05)
(0.299594 -2.70018e-05 -5.4614e-05)
(0.299617 -2.00084e-05 -3.49775e-05)
(0.299636 -1.45266e-05 -2.19284e-05)
(0.29965 -1.04326e-05 -1.41681e-05)
(0.299508 -3.88379e-05 -9.75107e-05)
(0.299541 -3.55563e-05 -9.07113e-05)
(0.299573 -3.0045e-05 -7.32658e-05)
(0.2996 -2.3878e-05 -5.13805e-05)
(0.299622 -1.8245e-05 -3.30721e-05)
(0.29964 -1.36255e-05 -2.08345e-05)
(0.299653 -1.00311e-05 -1.35373e-05)
(0.299517 -3.09418e-05 -9.07631e-05)
(0.29955 -2.8723e-05 -8.48378e-05)
(0.29958 -2.4784e-05 -6.88501e-05)
(0.299606 -2.02118e-05 -4.84234e-05)
(0.299627 -1.58718e-05 -3.12219e-05)
(0.299643 -1.21642e-05 -1.97072e-05)
(0.299656 -9.16155e-06 -1.28475e-05)
(0.299524 -2.41965e-05 -8.64364e-05)
(0.299556 -2.26152e-05 -8.09682e-05)
(0.299586 -1.98006e-05 -6.58136e-05)
(0.299611 -1.64845e-05 -4.62793e-05)
(0.299631 -1.32484e-05 -2.97993e-05)
(0.299647 -1.03859e-05 -1.87889e-05)
(0.299658 -7.98163e-06 -1.22518e-05)
(0.299528 -1.84611e-05 -8.39155e-05)
(0.29956 -1.7326e-05 -7.86659e-05)
(0.29959 -1.53305e-05 -6.39342e-05)
(0.299614 -1.29665e-05 -4.48807e-05)
(0.299634 -1.06128e-05 -2.88147e-05)
(0.299649 -8.47221e-06 -1.81143e-05)
(0.29966 -6.61947e-06 -1.17905e-05)
(0.299531 -1.35699e-05 -8.24906e-05)
(0.299563 -1.27705e-05 -7.7338e-05)
(0.299593 -1.13834e-05 -6.28097e-05)
(0.299617 -9.73806e-06 -4.40025e-05)
(0.299636 -8.07768e-06 -2.81627e-05)
(0.299651 -6.53686e-06 -1.76445e-05)
(0.299662 -5.17253e-06 -1.14536e-05)
(1.18893 -2.56242e-06 1.15529e-06)
(1.18893 -1.79566e-06 6.71196e-07)
(1.18893 -1.22816e-06 2.3326e-07)
(1.18893 -7.88421e-07 -1.60478e-07)
(1.18893 -4.29804e-07 -5.66235e-07)
(1.18894 -1.14769e-07 -1.06197e-06)
(1.18893 -2.45617e-06 1.12091e-06)
(1.18893 -1.81112e-06 6.39348e-07)
(1.18893 -1.30784e-06 2.11078e-07)
(1.18893 -9.07856e-07 -1.72386e-07)
(1.18893 -5.86016e-07 -5.6786e-07)
(1.18894 -3.22058e-07 -1.04735e-06)
(1.18893 -2.26194e-06 1.09688e-06)
(1.18893 -1.72833e-06 6.1881e-07)
(1.18893 -1.29137e-06 1.98334e-07)
(1.18893 -9.35409e-07 -1.77586e-07)
(1.18893 -6.4738e-07 -5.65689e-07)
(1.18894 -4.16459e-07 -1.03711e-06)
(1.18893 -2.01374e-06 1.08061e-06)
(1.18893 -1.57639e-06 6.10297e-07)
(1.18893 -1.20585e-06 1.95346e-07)
(1.18893 -8.98254e-07 -1.76492e-07)
(1.18893 -6.47196e-07 -5.60521e-07)
(1.18894 -4.46441e-07 -1.0273e-06)
(1.18893 -1.73559e-06 1.06838e-06)
(1.18893 -1.38198e-06 6.06062e-07)
(1.18893 -1.07592e-06 1.95527e-07)
(1.18893 -8.17802e-07 -1.73498e-07)
(1.18893 -6.04421e-07 -5.54762e-07)
(1.18894 -4.3169e-07 -1.01804e-06)
(1.18893 -1.43483e-06 1.05936e-06)
(1.18893 -1.15675e-06 6.03784e-07)
(1.18893 -9.12509e-07 1.96696e-07)
(1.18893 -7.03606e-07 -1.70209e-07)
(1.18893 -5.28349e-07 -5.49443e-07)
(1.18894 -3.83668e-07 -1.01009e-06)
(1.18893 -1.12151e-06 1.05314e-06)
(1.18893 -9.12268e-07 6.02649e-07)
(1.18893 -7.26542e-07 1.98155e-07)
(1.18893 -5.65805e-07 -1.67218e-07)
(1.18894 -4.29041e-07 -5.44989e-07)
(1.18894 -3.13854e-07 -1.00372e-06)
(0.652175 -6.10137e-06 -1.34199e-06)
(0.652179 -4.15547e-06 -1.25267e-06)
(0.652183 -2.70407e-06 -1.45573e-06)
(0.652186 -1.55478e-06 -1.82289e-06)
(0.652188 -5.67841e-07 -2.37607e-06)
(0.652189 3.8421e-07 -3.18526e-06)
(0.652176 -6.15874e-06 -1.33184e-06)
(0.65218 -4.32877e-06 -1.26196e-06)
(0.652183 -2.9247e-06 -1.46511e-06)
(0.652186 -1.79839e-06 -1.8267e-06)
(0.652188 -8.39259e-07 -2.37323e-06)
(0.652189 5.33297e-08 -3.16174e-06)
(0.652177 -5.93166e-06 -1.24013e-06)
(0.652181 -4.26913e-06 -1.21496e-06)
(0.652184 -2.96004e-06 -1.43649e-06)
(0.652186 -1.89389e-06 -1.80517e-06)
(0.652188 -9.84278e-07 -2.35325e-06)
(0.65219 -1.57352e-07 -3.1412e-06)
(0.652179 -5.43558e-06 -1.11175e-06)
(0.652182 -3.9898e-06 -1.13476e-06)
(0.652185 -2.82255e-06 -1.38365e-06)
(0.652187 -1.85596e-06 -1.76853e-06)
(0.652189 -1.02542e-06 -2.32616e-06)
(0.65219 -2.7465e-07 -3.12127e-06)
(0.65218 -4.75678e-06 -9.9209e-07)
(0.652184 -3.55272e-06 -1.0539e-06)
(0.652186 -2.55606e-06 -1.32796e-06)
(0.652188 -1.71602e-06 -1.72957e-06)
(0.65219 -9.86817e-07 -2.2984e-06)
(0.652191 -3.26254e-07 -3.10197e-06)
(0.652181 -3.96459e-06 -8.95398e-07)
(0.652185 -3.00342e-06 -9.84627e-07)
(0.652187 -2.1903e-06 -1.27838e-06)
(0.652189 -1.49367e-06 -1.69408e-06)
(0.65219 -8.82298e-07 -2.27302e-06)
(0.652192 -3.25409e-07 -3.08425e-06)
(0.652182 -3.11238e-06 -8.22351e-07)
(0.652185 -2.38361e-06 -9.29948e-07)
(0.652188 -1.75634e-06 -1.238e-06)
(0.652189 -1.21155e-06 -1.66455e-06)
(0.652191 -7.2862e-07 -2.25162e-06)
(0.652192 -2.85987e-07 -3.06897e-06)
(0.29966 -7.1613e-06 -9.87187e-06)
(0.299667 -4.83128e-06 -7.10152e-06)
(0.299672 -3.04596e-06 -5.35173e-06)
(0.299675 -1.58603e-06 -4.19814e-06)
(0.299676 -2.81118e-07 -3.42022e-06)
(0.299676 1.04483e-06 -2.82397e-06)
(0.299661 -7.40371e-06 -9.67659e-06)
(0.299668 -5.1221e-06 -6.98803e-06)
(0.299673 -3.33852e-06 -5.28376e-06)
(0.299676 -1.86812e-06 -4.15774e-06)
(0.299677 -5.64152e-07 -3.40059e-06)
(0.299676 7.24669e-07 -2.81367e-06)
(0.299663 -7.27111e-06 -9.30502e-06)
(0.29967 -5.12873e-06 -6.76406e-06)
(0.299674 -3.4189e-06 -5.14734e-06)
(0.299677 -1.99216e-06 -4.07696e-06)
(0.299678 -7.24971e-07 -3.35965e-06)
(0.299677 4.95804e-07 -2.81523e-06)
(0.299665 -6.76953e-06 -8.8782e-06)
(0.299671 -4.85656e-06 -6.49834e-06)
(0.299675 -3.29632e-06 -4.98223e-06)
(0.299678 -1.97666e-06 -3.97965e-06)
(0.299679 -8.00046e-07 -3.31441e-06)
(0.299678 3.23484e-07 -2.82347e-06)
(0.299667 -6.00083e-06 -8.49151e-06)
(0.299673 -4.37159e-06 -6.24785e-06)
(0.299677 -3.01353e-06 -4.82186e-06)
(0.299679 -1.84815e-06 -3.88309e-06)
(0.29968 -8.03026e-07 -3.26853e-06)
(0.299679 1.9112e-07 -2.82673e-06)
(0.299669 -5.04957e-06 -8.17793e-06)
(0.299674 -3.7265e-06 -6.03666e-06)
(0.299678 -2.60194e-06 -4.68238e-06)
(0.29968 -1.62369e-06 -3.79672e-06)
(0.299681 -7.40491e-07 -3.22556e-06)
(0.299679 9.87922e-08 -2.82364e-06)
(0.29967 -3.99088e-06 -7.93982e-06)
(0.299675 -2.97546e-06 -5.87093e-06)
(0.299679 -2.09847e-06 -4.56997e-06)
(0.299681 -1.32667e-06 -3.72528e-06)
(0.299681 -6.2537e-07 -3.18832e-06)
(0.29968 4.13008e-08 -2.8171e-06)
(1.18894 1.99274e-07 -1.69649e-06)
(1.18894 5.49462e-07 -2.45108e-06)
(1.18895 9.95975e-07 -3.00199e-06)
(1.18895 1.70608e-06 -2.14588e-06)
(1.18894 3.21216e-06 2.9026e-06)
(1.18892 6.48097e-06 1.57291e-05)
(1.1889 1.04443e-05 3.61141e-05)
(1.18894 -9.26821e-08 -1.67149e-06)
(1.18894 1.14617e-07 -2.42555e-06)
(1.18895 3.27107e-07 -2.99586e-06)
(1.18895 6.41562e-07 -2.24833e-06)
(1.18894 1.47187e-06 2.45223e-06)
(1.18892 3.76214e-06 1.4497e-05)
(1.1889 6.8438e-06 3.39322e-05)
(1.18894 -2.35498e-07 -1.6558e-06)
(1.18894 -1.02056e-07 -2.40815e-06)
(1.18895 1.86175e-09 -2.998e-06)
(1.18895 1.28046e-07 -2.34935e-06)
(1.18894 4.78612e-07 2.05492e-06)
(1.18892 1.44795e-06 1.35376e-05)
(1.1889 2.79611e-06 3.23664e-05)
(1.18894 -2.92584e-07 -1.64184e-06)
(1.18894 -1.82837e-07 -2.39076e-06)
(1.18895 -1.05355e-07 -2.98754e-06)
(1.18895 -2.58728e-08 -2.38961e-06)
(1.18894 1.69714e-07 1.85112e-06)
(1.18892 6.59717e-07 1.30415e-05)
(1.1889 1.32475e-06 3.15688e-05)
(1.18894 -2.96335e-07 -1.62844e-06)
(1.18894 -1.93873e-07 -2.37271e-06)
(1.18895 -1.13003e-07 -2.96866e-06)
(1.18895 -2.84385e-08 -2.38914e-06)
(1.18894 1.29679e-07 1.78284e-06)
(1.18892 4.50638e-07 1.28514e-05)
(1.1889 8.50654e-07 3.12571e-05)
(1.18894 -2.66051e-07 -1.61691e-06)
(1.18894 -1.70149e-07 -2.35657e-06)
(1.18895 -8.52989e-08 -2.94841e-06)
(1.18895 8.27398e-09 -2.3725e-06)
(1.18894 1.51527e-07 1.77675e-06)
(1.18892 3.86974e-07 1.28041e-05)
(1.1889 6.51454e-07 3.11712e-05)
(1.18894 -2.16905e-07 -1.60783e-06)
(1.18894 -1.32972e-07 -2.34386e-06)
(1.18895 -5.29934e-08 -2.93157e-06)
(1.18895 3.75073e-08 -2.35427e-06)
(1.18894 1.62329e-07 1.78994e-06)
(1.18892 3.39747e-07 1.28071e-05)
(1.1889 5.21897e-07 3.11664e-05)
(0.652191 1.41835e-06 -4.17323e-06)
(0.652191 2.69064e-06 -4.85616e-06)
(0.65219 4.45827e-06 -3.59533e-06)
(0.652183 7.20031e-06 3.55444e-06)
(0.652166 1.18473e-05 2.30286e-05)
(0.652129 1.91085e-05 5.96783e-05)
(0.652102 2.60535e-05 0.00010558)
(0.652191 9.67633e-07 -4.14523e-06)
(0.652191 2.01961e-06 -4.85441e-06)
(0.652189 3.40013e-06 -3.69917e-06)
(0.652183 5.45597e-06 3.10184e-06)
(0.652167 8.93755e-06 2.1648e-05)
(0.652131 1.4648e-05 5.63676e-05)
(0.652103 2.0379e-05 0.000100078)
(0.652191 6.5409e-07 -4.13504e-06)
(0.652191 1.53898e-06 -4.88456e-06)
(0.65219 2.63541e-06 -3.8679e-06)
(0.652184 4.17018e-06 2.54065e-06)
(0.652167 6.54758e-06 2.01858e-05)
(0.652132 1.00798e-05 5.33978e-05)
(0.652105 1.34845e-05 9.5632e-05)
(0.652191 4.48778e-07 -4.12995e-06)
(0.652192 1.21213e-06 -4.91556e-06)
(0.65219 2.11336e-06 -4.00405e-06)
(0.652184 3.29792e-06 2.13348e-06)
(0.652168 4.98157e-06 1.92007e-05)
(0.652134 7.25974e-06 5.15374e-05)
(0.652106 9.34047e-06 9.2985e-05)
(0.652192 3.06827e-07 -4.12227e-06)
(0.652192 9.62583e-07 -4.93175e-06)
(0.652191 1.70998e-06 -4.08334e-06)
(0.652185 2.64053e-06 1.90509e-06)
(0.652169 3.87398e-06 1.86701e-05)
(0.652135 5.42167e-06 5.05747e-05)
(0.652107 6.77196e-06 9.16565e-05)
(0.652193 2.08451e-07 -4.11263e-06)
(0.652193 7.56065e-07 -4.93604e-06)
(0.652192 1.36527e-06 -4.1206e-06)
(0.652186 2.09265e-06 1.79536e-06)
(0.65217 3.00099e-06 1.84209e-05)
(0.652136 4.06859e-06 5.01372e-05)
(0.652109 4.96258e-06 9.10706e-05)
(0.652193 1.39241e-07 -4.10305e-06)
(0.652193 5.73262e-07 -4.93468e-06)
(0.652192 1.04831e-06 -4.13603e-06)
(0.652186 1.5987e-06 1.74663e-06)
(0.652171 2.25553e-06 1.83119e-05)
(0.652137 2.98883e-06 4.99529e-05)
(0.652109 3.58186e-06 9.08334e-05)
(0.299672 2.53792e-06 -1.91782e-06)
(0.299666 4.41817e-06 4.91233e-07)
(0.299656 7.00861e-06 7.21476e-06)
(0.299639 1.07896e-05 2.33523e-05)
(0.299614 1.63677e-05 5.4728e-05)
(0.299582 2.35361e-05 0.000101664)
(0.299562 2.92366e-05 0.000149092)
(0.299673 2.1197e-06 -1.94053e-06)
(0.299667 3.80269e-06 3.89991e-07)
(0.299656 6.03202e-06 6.91759e-06)
(0.29964 9.18176e-06 2.25856e-05)
(0.299615 1.37639e-05 5.29144e-05)
(0.299583 1.97787e-05 9.78499e-05)
(0.299563 2.47398e-05 0.000143122)
(0.299673 1.77849e-06 -2.00387e-06)
(0.299667 3.26938e-06 2.01157e-07)
(0.299657 5.15969e-06 6.44434e-06)
(0.299641 7.70919e-06 2.14978e-05)
(0.299617 1.11974e-05 5.06589e-05)
(0.299585 1.55036e-05 9.38299e-05)
(0.299565 1.89977e-05 0.000137482)
(0.299674 1.48065e-06 -2.08061e-06)
(0.299669 2.78367e-06 1.23891e-10)
(0.299659 4.36796e-06 5.9895e-06)
(0.299643 6.40409e-06 2.05414e-05)
(0.299619 9.03095e-06 4.8834e-05)
(0.299588 1.20903e-05 9.0831e-05)
(0.299567 1.45043e-05 0.000133514)
(0.299675 1.20264e-06 -2.14389e-06)
(0.29967 2.31215e-06 -1.60378e-07)
(0.29966 3.61249e-06 5.64901e-06)
(0.299644 5.21031e-06 1.98735e-05)
(0.299621 7.16862e-06 4.76332e-05)
(0.29959 9.34089e-06 8.89529e-05)
(0.299569 1.10101e-05 0.000131109)
(0.299676 9.45462e-07 -2.18783e-06)
(0.299671 1.85578e-06 -2.7274e-07)
(0.299661 2.8916e-06 5.42204e-06)
(0.299646 4.11636e-06 1.94549e-05)
(0.299623 5.55157e-06 4.69216e-05)
(0.299591 7.07637e-06 8.78895e-05)
(0.299571 8.21838e-06 0.000129785)
(0.299677 7.09619e-07 -2.21595e-06)
(0.299671 1.41787e-06 -3.47083e-07)
(0.299662 2.20589e-06 5.27734e-06)
(0.299647 3.11007e-06 1.92022e-05)
(0.299624 4.13255e-06 4.65149e-05)
(0.299593 5.18148e-06 8.7309e-05)
(0.299572 5.9496e-06 0.000129084)
(1.18888 -1.7194e-06 -1.17236e-05)
(1.1889 -1.68462e-06 -9.06916e-06)
(1.18892 -1.59643e-06 -5.23431e-06)
(1.18893 -1.46307e-06 -1.56125e-06)
(1.18894 -1.30356e-06 7.51583e-07)
(1.18894 -1.13491e-06 1.59078e-06)
(1.18894 -9.62804e-07 1.47663e-06)
(1.18888 -1.04052e-06 -1.17486e-05)
(1.1889 -1.01413e-06 -9.09004e-06)
(1.18892 -9.55129e-07 -5.24981e-06)
(1.18893 -8.71878e-07 -1.57258e-06)
(1.18894 -7.75862e-07 7.43708e-07)
(1.18894 -6.76082e-07 1.58621e-06)
(1.18894 -5.75293e-07 1.4724e-06)
(1.18888 -3.4703e-07 -1.17614e-05)
(1.1889 -3.37148e-07 -9.10069e-06)
(1.18892 -3.16435e-07 -5.25759e-06)
(1.18893 -2.88184e-07 -1.57811e-06)
(1.18894 -2.56177e-07 7.39966e-07)
(1.18894 -2.2321e-07 1.58407e-06)
(1.18894 -1.90088e-07 1.47047e-06)
(1.18888 3.51006e-07 -1.17614e-05)
(1.1889 3.41865e-07 -9.1007e-06)
(1.18892 3.2147e-07 -5.2576e-06)
(1.18893 2.93188e-07 -1.57812e-06)
(1.18894 2.60982e-07 7.39952e-07)
(1.18894 2.27738e-07 1.58406e-06)
(1.18894 1.943e-07 1.47046e-06)
(1.18888 1.04455e-06 -1.17486e-05)
(1.1889 1.01894e-06 -9.09007e-06)
(1.18892 9.60282e-07 -5.24985e-06)
(1.18893 8.76999e-07 -1.57262e-06)
(1.18894 7.80768e-07 7.43665e-07)
(1.18894 6.80688e-07 1.58617e-06)
(1.18894 5.79558e-07 1.47237e-06)
(1.18888 1.72355e-06 -1.17236e-05)
(1.1889 1.68963e-06 -9.06921e-06)
(1.18892 1.60184e-06 -5.23438e-06)
(1.18893 1.46844e-06 -1.56133e-06)
(1.18894 1.30868e-06 7.51508e-07)
(1.18894 1.13968e-06 1.59071e-06)
(1.18894 9.67175e-07 1.47658e-06)
(0.652048 -6.45561e-06 -4.39934e-05)
(0.652086 -6.16158e-06 -3.8421e-05)
(0.652122 -5.60632e-06 -2.78997e-05)
(0.652146 -4.90881e-06 -1.61652e-05)
(0.652162 -4.1726e-06 -7.5436e-06)
(0.652173 -3.46132e-06 -2.94713e-06)
(0.652179 -2.81244e-06 -1.17683e-06)
(0.652049 -3.77875e-06 -4.3891e-05)
(0.652087 -3.6057e-06 -3.83158e-05)
(0.652123 -3.28522e-06 -2.77999e-05)
(0.652147 -2.88628e-06 -1.60794e-05)
(0.652163 -2.46526e-06 -7.47357e-06)
(0.652173 -2.05638e-06 -2.89143e-06)
(0.652179 -1.67998e-06 -1.13424e-06)
(0.652049 -1.24171e-06 -4.38492e-05)
(0.652088 -1.1842e-06 -3.82717e-05)
(0.652123 -1.07922e-06 -2.77568e-05)
(0.652148 -9.49339e-07 -1.6041e-05)
(0.652163 -8.12405e-07 -7.44138e-06)
(0.652173 -6.79153e-07 -2.86522e-06)
(0.65218 -5.55993e-07 -1.11379e-06)
(0.652049 1.2512e-06 -4.38492e-05)
(0.652088 1.19481e-06 -3.82718e-05)
(0.652123 1.09018e-06 -2.77568e-05)
(0.652148 9.60063e-07 -1.60411e-05)
(0.652163 8.22585e-07 -7.44145e-06)
(0.652173 6.88649e-07 -2.86529e-06)
(0.65218 5.64772e-07 -1.11384e-06)
(0.652049 3.78842e-06 -4.38911e-05)
(0.652087 3.61654e-06 -3.8316e-05)
(0.652123 3.29644e-06 -2.78001e-05)
(0.652147 2.89725e-06 -1.60796e-05)
(0.652163 2.47564e-06 -7.47377e-06)
(0.652173 2.06602e-06 -2.89162e-06)
(0.652179 1.68885e-06 -1.1344e-06)
(0.652048 6.46561e-06 -4.39936e-05)
(0.652086 6.17291e-06 -3.84213e-05)
(0.652122 5.6181e-06 -2.79e-05)
(0.652146 4.9203e-06 -1.61656e-05)
(0.652162 4.1834e-06 -7.54397e-06)
(0.652173 3.47125e-06 -2.94746e-06)
(0.652179 2.8215e-06 -1.17711e-06)
(0.299533 -9.29644e-06 -8.16858e-05)
(0.299565 -8.76372e-06 -7.65755e-05)
(0.299594 -7.84989e-06 -6.21446e-05)
(0.299618 -6.76709e-06 -4.34629e-05)
(0.299638 -5.66525e-06 -2.77451e-05)
(0.299652 -4.62865e-06 -1.73313e-05)
(0.299663 -3.69591e-06 -1.12211e-05)
(0.299534 -5.42563e-06 -8.12466e-05)
(0.299566 -5.11955e-06 -7.61547e-05)
(0.299595 -4.59912e-06 -6.17702e-05)
(0.299619 -3.98345e-06 -4.31511e-05)
(0.299638 -3.35399e-06 -2.74968e-05)
(0.299653 -2.75678e-06 -1.71399e-05)
(0.299664 -2.21389e-06 -1.10754e-05)
(0.299534 -1.78036e-06 -8.10513e-05)
(0.299566 -1.68017e-06 -7.59664e-05)
(0.299596 -1.51103e-06 -6.16007e-05)
(0.29962 -1.31133e-06 -4.30078e-05)
(0.299639 -1.10678e-06 -2.73809e-05)
(0.299654 -9.11986e-07 -1.70491e-05)
(0.299664 -7.34055e-07 -1.10054e-05)
(0.299534 1.79228e-06 -8.10514e-05)
(0.299566 1.6931e-06 -7.59666e-05)
(0.299596 1.52414e-06 -6.16009e-05)
(0.29962 1.32401e-06 -4.3008e-05)
(0.299639 1.11873e-06 -2.7381e-05)
(0.299654 9.2307e-07 -1.70492e-05)
(0.299664 7.44257e-07 -1.10056e-05)
(0.299534 5.43777e-06 -8.1247e-05)
(0.299566 5.13277e-06 -7.61552e-05)
(0.299595 4.61252e-06 -6.17707e-05)
(0.299619 3.9964e-06 -4.31516e-05)
(0.299638 3.36614e-06 -2.74973e-05)
(0.299653 2.76801e-06 -1.71403e-05)
(0.299664 2.22419e-06 -1.10758e-05)
(0.299533 9.30905e-06 -8.16864e-05)
(0.299565 8.77753e-06 -7.65763e-05)
(0.299594 7.86393e-06 -6.21455e-05)
(0.299618 6.7806e-06 -4.34638e-05)
(0.299638 5.67784e-06 -2.7746e-05)
(0.299652 4.64018e-06 -1.73321e-05)
(0.299663 3.70637e-06 -1.12217e-05)
(1.18893 -8.02511e-07 1.04923e-06)
(1.18893 -6.56772e-07 6.02259e-07)
(1.18893 -5.26511e-07 1.9949e-07)
(1.18893 -4.12713e-07 -1.64833e-07)
(1.18894 -3.14753e-07 -5.41604e-07)
(1.18894 -2.30864e-07 -9.99036e-07)
(1.18893 -4.81197e-07 1.04704e-06)
(1.18893 -3.9516e-07 6.0212e-07)
(1.18893 -3.1812e-07 2.00486e-07)
(1.18893 -2.50293e-07 -1.632e-07)
(1.18894 -1.91425e-07 -5.39351e-07)
(1.18894 -1.40424e-07 -9.96004e-07)
(1.18893 -1.59145e-07 1.04606e-06)
(1.18893 -1.30758e-07 6.01969e-07)
(1.18893 -1.05369e-07 2.00996e-07)
(1.18893 -8.29098e-08 -1.62377e-07)
(1.18894 -6.33274e-08 -5.38234e-07)
(1.18894 -4.62575e-08 -9.94524e-07)
(1.18893 1.63044e-07 1.04605e-06)
(1.18893 1.34362e-07 6.01962e-07)
(1.18893 1.08709e-07 2.00988e-07)
(1.18893 8.60207e-08 -1.62384e-07)
(1.18894 6.62495e-08 -5.3824e-07)
(1.18894 4.90314e-08 -9.9453e-07)
(1.18893 4.85129e-07 1.04702e-06)
(1.18893 3.98783e-07 6.02097e-07)
(1.18893 3.21465e-07 2.00463e-07)
(1.18893 2.53403e-07 -1.63221e-07)
(1.18894 1.94342e-07 -5.3937e-07)
(1.18894 1.43193e-07 -9.96022e-07)
(1.18893 8.06505e-07 1.04919e-06)
(1.18893 6.60425e-07 6.02217e-07)
(1.18893 5.29865e-07 1.99452e-07)
(1.18893 4.15816e-07 -1.64868e-07)
(1.18894 3.17659e-07 -5.41636e-07)
(1.18894 2.33623e-07 -9.99067e-07)
(0.652183 -2.23222e-06 -7.7045e-07)
(0.652186 -1.72288e-06 -8.89888e-07)
(0.652188 -1.27883e-06 -1.20779e-06)
(0.65219 -8.89161e-07 -1.64208e-06)
(0.652191 -5.4095e-07 -2.23512e-06)
(0.652192 -2.20083e-07 -3.05706e-06)
(0.652184 -1.34037e-06 -7.37238e-07)
(0.652186 -1.03964e-06 -8.63813e-07)
(0.652188 -7.75096e-07 -1.1878e-06)
(0.65219 -5.41402e-07 -1.62706e-06)
(0.652191 -3.31412e-07 -2.224e-06)
(0.652193 -1.37172e-07 -3.04902e-06)
(0.652184 -4.4441e-07 -7.21064e-07)
(0.652187 -3.45211e-07 -8.51066e-07)
(0.652189 -2.5751e-07 -1.17791e-06)
(0.65219 -1.7979e-07 -1.61956e-06)
(0.652192 -1.09743e-07 -2.21844e-06)
(0.652193 -4.48039e-08 -3.045e-06)
(0.652184 4.5249e-07 -7.21111e-07)
(0.652187 3.5265e-07 -8.51108e-07)
(0.652189 2.6439e-07 -1.17795e-06)
(0.65219 1.86207e-07 -1.6196e-06)
(0.652192 1.15797e-07 -2.21847e-06)
(0.652193 5.05911e-08 -3.04503e-06)
(0.652184 1.3485e-06 -7.3738e-07)
(0.652186 1.0471e-06 -8.63942e-07)
(0.652188 7.81973e-07 -1.18792e-06)
(0.65219 5.47805e-07 -1.62716e-06)
(0.652191 3.37448e-07 -2.2241e-06)
(0.652193 1.42946e-07 -3.04911e-06)
(0.652183 2.24045e-06 -7.70693e-07)
(0.652186 1.73037e-06 -8.90108e-07)
(0.652188 1.2857e-06 -1.20798e-06)
(0.65219 8.9553e-07 -1.64226e-06)
(0.652191 5.46949e-07 -2.23529e-06)
(0.652192 2.25832e-07 -3.05723e-06)
(0.299671 -2.87518e-06 -7.77041e-06)
(0.299676 -2.15969e-06 -5.75005e-06)
(0.29968 -1.53426e-06 -4.48623e-06)
(0.299682 -9.78891e-07 -3.67094e-06)
(0.299682 -4.71576e-07 -3.1588e-06)
(0.299681 1.102e-08 -2.80997e-06)
(0.299672 -1.7313e-06 -7.66216e-06)
(0.299677 -1.30663e-06 -5.67141e-06)
(0.29968 -9.32421e-07 -4.431e-06)
(0.299682 -5.98106e-07 -3.63458e-06)
(0.299682 -2.91593e-07 -3.13853e-06)
(0.299681 1.81417e-10 -2.80428e-06)
(0.299672 -5.75111e-07 -7.60949e-06)
(0.299677 -4.34603e-07 -5.63272e-06)
(0.29968 -3.10284e-07 -4.40364e-06)
(0.299682 -1.9887e-07 -3.61644e-06)
(0.299683 -9.65078e-08 -3.12829e-06)
(0.299681 9.97494e-10 -2.80121e-06)
(0.299672 5.84473e-07 -7.6096e-06)
(0.299677 4.43205e-07 -5.63282e-06)
(0.29968 3.18232e-07 -4.40373e-06)
(0.299682 2.0628e-07 -3.61652e-06)
(0.299683 1.035e-07 -3.12837e-06)
(0.299681 5.69272e-09 -2.8013e-06)
(0.299672 1.74071e-06 -7.6625e-06)
(0.299677 1.31524e-06 -5.67172e-06)
(0.29968 9.40357e-07 -4.43128e-06)
(0.299682 6.05494e-07 -3.63484e-06)
(0.299682 2.98564e-07 -3.13878e-06)
(0.299681 6.49622e-09 -2.80452e-06)
(0.299671 2.88466e-06 -7.771e-06)
(0.299676 2.16831e-06 -5.75056e-06)
(0.29968 1.54217e-06 -4.4867e-06)
(0.299682 9.86231e-07 -3.67138e-06)
(0.299682 4.78502e-07 -3.15921e-06)
(0.299681 -4.36883e-09 -2.81039e-06)
(1.18894 -1.58347e-07 -1.60131e-06)
(1.18894 -9.29689e-08 -2.3349e-06)
(1.18895 -2.80062e-08 -2.91961e-06)
(1.18895 4.60573e-08 -2.34021e-06)
(1.18894 1.42844e-07 1.8042e-06)
(1.18892 2.69246e-07 1.28207e-05)
(1.1889 3.91468e-07 3.11813e-05)
(1.18894 -9.55638e-08 -1.59718e-06)
(1.18894 -5.41483e-08 -2.32935e-06)
(1.18895 -1.21234e-08 -2.91233e-06)
(1.18895 3.58956e-08 -2.33139e-06)
(1.18894 9.68225e-08 1.81406e-06)
(1.18892 1.72817e-07 1.28319e-05)
(1.1889 2.43834e-07 3.11952e-05)
(1.18894 -3.11093e-08 -1.59521e-06)
(1.18894 -1.69679e-08 -2.32672e-06)
(1.18895 -2.49884e-09 -2.90888e-06)
(1.18895 1.40916e-08 -2.32724e-06)
(1.18894 3.48497e-08 1.81882e-06)
(1.18892 6.02121e-08 1.28376e-05)
(1.1889 8.34999e-08 3.12026e-05)
(1.18894 3.37742e-08 -1.59521e-06)
(1.18894 1.95643e-08 -2.32673e-06)
(1.18895 5.08236e-09 -2.9089e-06)
(1.18895 -1.15378e-08 -2.32726e-06)
(1.18894 -3.22779e-08 1.81881e-06)
(1.18892 -5.76269e-08 1.28376e-05)
(1.1889 -8.10927e-08 3.12026e-05)
(1.18894 9.82241e-08 -1.5972e-06)
(1.18894 5.67331e-08 -2.32937e-06)
(1.18895 1.46355e-08 -2.91236e-06)
(1.18895 -3.33349e-08 -2.33141e-06)
(1.18894 -9.42147e-08 1.81403e-06)
(1.18892 -1.70185e-07 1.28319e-05)
(1.1889 -2.41384e-07 3.11952e-05)
(1.18894 1.61007e-07 -1.60134e-06)
(1.18894 9.55742e-08 -2.33493e-06)
(1.18895 3.05935e-08 -2.91961e-06)
(1.18895 -4.34238e-08 -2.34025e-06)
(1.18894 -1.40143e-07 1.80414e-06)
(1.18892 -2.66506e-07 1.28207e-05)
(1.1889 -3.88923e-07 3.11813e-05)
(0.652193 8.88772e-08 -4.09518e-06)
(0.652194 4.03404e-07 -4.93195e-06)
(0.652192 7.43933e-07 -4.14222e-06)
(0.652187 1.1304e-06 1.725e-06)
(0.652172 1.57745e-06 1.82645e-05)
(0.652138 2.05909e-06 4.98767e-05)
(0.65211 2.43907e-06 9.07413e-05)
(0.652194 5.01816e-08 -4.0898e-06)
(0.652194 2.40645e-07 -4.92973e-06)
(0.652193 4.45461e-07 -4.1449e-06)
(0.652187 6.74906e-07 1.71504e-06)
(0.652172 9.35189e-07 1.82434e-05)
(0.652138 1.20955e-06 4.98449e-05)
(0.65211 1.42274e-06 9.0706e-05)
(0.652194 1.79112e-08 -4.08712e-06)
(0.652194 8.16482e-08 -4.92858e-06)
(0.652193 1.49991e-07 -4.14593e-06)
(0.652187 2.26093e-07 1.71094e-06)
(0.652172 3.11627e-07 1.82351e-05)
(0.652138 4.00832e-07 4.9833e-05)
(0.652111 4.69543e-07 9.06938e-05)
(0.652194 -1.22983e-08 -4.08716e-06)
(0.652194 -7.61221e-08 -4.92862e-06)
(0.652193 -1.44469e-07 -4.14599e-06)
(0.652187 -2.20516e-07 1.71088e-06)
(0.652172 -3.05942e-07 1.8235e-05)
(0.652138 -3.95107e-07 4.9833e-05)
(0.652111 -4.64198e-07 9.06938e-05)
(0.652194 -4.45687e-08 -4.0899e-06)
(0.652194 -2.35102e-07 -4.92984e-06)
(0.652193 -4.39906e-07 -4.14505e-06)
(0.652187 -6.69251e-07 1.71488e-06)
(0.652172 -9.29393e-07 1.82433e-05)
(0.652138 -1.20369e-06 4.98447e-05)
(0.65211 -1.41728e-06 9.07058e-05)
(0.652193 -8.32607e-08 -4.09536e-06)
(0.652194 -3.9781e-07 -4.93214e-06)
(0.652192 -7.38258e-07 -4.14241e-06)
(0.652187 -1.12456e-06 1.72473e-06)
(0.652172 -1.5714e-06 1.82642e-05)
(0.652138 -2.05295e-06 4.98763e-05)
(0.65211 -2.43337e-06 9.0741e-05)
(0.299678 4.92788e-07 -2.23309e-06)
(0.299672 9.98209e-07 -3.9456e-07)
(0.299662 1.55159e-06 5.18727e-06)
(0.299647 2.17287e-06 1.90518e-05)
(0.299624 2.85763e-06 4.62839e-05)
(0.299593 3.54257e-06 8.69931e-05)
(0.299573 4.03594e-06 0.000128713)
(0.299678 2.90723e-07 -2.24281e-06)
(0.299672 5.93594e-07 -4.22763e-07)
(0.299663 9.21781e-07 5.13459e-06)
(0.299648 1.28506e-06 1.89666e-05)
(0.299625 1.6789e-06 4.61576e-05)
(0.299594 2.06655e-06 8.6826e-05)
(0.299573 2.34289e-06 0.000128521)
(0.299678 9.80067e-08 -2.24724e-06)
(0.299673 1.98853e-07 -4.35969e-07)
(0.299663 3.07597e-07 5.11013e-06)
(0.299648 4.2716e-07 1.89277e-05)
(0.299625 5.55756e-07 4.61013e-05)
(0.299594 6.8132e-07 8.67531e-05)
(0.299574 7.70236e-07 0.000128439)
(0.299678 -9.15058e-08 -2.24733e-06)
(0.299673 -1.92439e-07 -4.36063e-07)
(0.299663 -3.01177e-07 5.11001e-06)
(0.299648 -4.20647e-07 1.89276e-05)
(0.299625 -5.491e-07 4.61012e-05)
(0.299594 -6.74632e-07 8.67529e-05)
(0.299574 -7.64016e-07 0.000128439)
(0.299678 -2.84217e-07 -2.24307e-06)
(0.299672 -5.87148e-07 -4.23051e-07)
(0.299663 -9.15298e-07 5.13425e-06)
(0.299648 -1.27844e-06 1.89662e-05)
(0.299625 -1.67211e-06 4.61572e-05)
(0.299594 -2.05973e-06 8.68255e-05)
(0.299573 -2.33655e-06 0.000128521)
(0.299678 -4.8627e-07 -2.23354e-06)
(0.299672 -9.91694e-07 -3.95061e-07)
(0.299662 -1.54497e-06 5.18669e-06)
(0.299647 -2.16604e-06 1.90511e-05)
(0.299624 -2.85056e-06 4.62831e-05)
(0.299593 -3.53545e-06 8.69922e-05)
(0.299573 -4.02936e-06 0.000128712)
(1.18888 2.38087e-06 -1.1695e-05)
(1.1889 2.35259e-06 -9.04483e-06)
(1.18892 2.25132e-06 -5.21552e-06)
(1.18893 2.07559e-06 -1.54629e-06)
(1.18893 1.85192e-06 7.62878e-07)
(1.18894 1.60889e-06 1.59745e-06)
(1.18893 1.35804e-06 1.48362e-06)
(1.18887 3.03543e-06 -1.17e-05)
(1.1889 3.03023e-06 -9.04803e-06)
(1.18892 2.93244e-06 -5.21476e-06)
(1.18893 2.71852e-06 -1.53954e-06)
(1.18893 2.42364e-06 7.72255e-07)
(1.18893 2.09304e-06 1.60439e-06)
(1.18893 1.75204e-06 1.4936e-06)
(1.18887 3.77422e-06 -1.18518e-05)
(1.1889 3.80584e-06 -9.17461e-06)
(1.18892 3.71443e-06 -5.2987e-06)
(1.18893 3.44512e-06 -1.57903e-06)
(1.18893 3.04959e-06 7.61403e-07)
(1.18893 2.60152e-06 1.60567e-06)
(1.18893 2.14675e-06 1.50519e-06)
(1.18887 4.87537e-06 -1.24157e-05)
(1.1889 4.89302e-06 -9.64454e-06)
(1.18892 4.74223e-06 -5.61571e-06)
(1.18893 4.34235e-06 -1.74728e-06)
(1.18893 3.77072e-06 6.91231e-07)
(1.18893 3.14299e-06 1.58386e-06)
(1.18893 2.53834e-06 1.51522e-06)
(1.18887 7.3755e-06 -1.38465e-05)
(1.18889 6.97625e-06 -1.08164e-05)
(1.18892 6.38315e-06 -6.38704e-06)
(1.18893 5.58338e-06 -2.15499e-06)
(1.18893 4.65646e-06 5.15701e-07)
(1.18893 3.73902e-06 1.52841e-06)
(1.18893 2.92821e-06 1.51902e-06)
(1.18886 1.33875e-05 -1.65804e-05)
(1.18889 1.15363e-05 -1.29927e-05)
(1.18891 9.44885e-06 -7.74662e-06)
(1.18893 7.53906e-06 -2.83531e-06)
(1.18893 5.84783e-06 2.39264e-07)
(1.18893 4.42934e-06 1.44559e-06)
(1.18893 3.30859e-06 1.52077e-06)
(1.18886 2.02666e-05 -1.99952e-05)
(1.18888 1.74881e-05 -1.56284e-05)