/*--------------------------------*- C++ -*----------------------------------*\
  =========                 |
  \\      /  F ield         | OpenFOAM: The Open Source CFD Toolbox
   \\    /   O peration     | Website:  https://openfoam.org
    \\  /    A nd           | Version:  7
     \\/     M anipulation  |
\*---------------------------------------------------------------------------*/
FoamFile
{
    version     2.0;
    format      ascii;
    class       volScalarField;
    location    "0.25";
    object      p;
}
// * * * * * * * * * * * * * * * * * * * * * * * * * * * * * * * * * * * * * //

dimensions      [0 2 -2 0 0 0 0];

internalField   nonuniform List<scalar> 
7936
(
-3.25805e-08
-0.0136794
-0.0264116
-0.0375295
-0.0460253
-0.0508715
-0.0512805
-0.0468156
-0.0202747
-0.0365961
-0.0536358
-0.0705293
-0.0860666
-0.0988702
-0.107457
-0.110352
-0.0385303
-0.0586022
-0.0809726
-0.104589
-0.128093
-0.149702
-0.167129
-0.17767
-0.0535751
-0.0782837
-0.10675
-0.137913
-0.170305
-0.201731
-0.22901
-0.247958
-0.0639274
-0.0939395
-0.12902
-0.16825
-0.21016
-0.252218
-0.290298
-0.31845
-0.068201
-0.103855
-0.145574
-0.192729
-0.244004
-0.296635
-0.345541
-0.382725
-0.0654596
-0.10651
-0.154071
-0.207908
-0.266933
-0.32819
-0.385548
-0.428593
-0.0554313
-0.100844
-0.152406
-0.210225
-0.273318
-0.338271
-0.397349
-0.436448
0.000377929
-0.0133296
-0.0262446
-0.0375342
-0.0461848
-0.051224
-0.0518584
-0.0476156
-0.0199259
-0.0363749
-0.0536455
-0.0708213
-0.086749
-0.100094
-0.109362
-0.112993
-0.0383661
-0.0586017
-0.0812713
-0.105379
-0.129647
-0.152355
-0.171208
-0.183346
-0.0535851
-0.0785387
-0.107494
-0.139514
-0.173284
-0.206751
-0.236767
-0.258891
-0.0640897
-0.0945273
-0.130419
-0.171076
-0.215336
-0.260983
-0.304055
-0.33824
-0.068539
-0.104874
-0.14785
-0.197241
-0.252289
-0.310881
-0.368406
-0.416442
-0.0659786
-0.108023
-0.157388
-0.214472
-0.279122
-0.349564
-0.420719
-0.481858
-0.0560941
-0.102829
-0.156746
-0.218857
-0.289531
-0.367139
-0.44568
-0.509913
0.000875606
-0.0128767
-0.0259496
-0.0374166
-0.0463133
-0.0516986
-0.0527592
-0.0489579
-0.0194607
-0.0360045
-0.0535459
-0.0711595
-0.087775
-0.102118
-0.112676
-0.117742
-0.0380499
-0.0584706
-0.0816074
-0.106571
-0.132236
-0.157014
-0.17862
-0.193925
-0.0534405
-0.078785
-0.10859
-0.142167
-0.178522
-0.215926
-0.251371
-0.280025
-0.0641799
-0.0953454
-0.132694
-0.176011
-0.224783
-0.277546
-0.330895
-0.37814
-0.0689397
-0.106476
-0.151764
-0.205409
-0.267887
-0.338702
-0.414835
-0.48807
-0.0667226
-0.110559
-0.163297
-0.226696
-0.302753
-0.392846
-0.495673
-0.603072
-0.0571374
-0.106287
-0.164688
-0.235339
-0.321945
-0.428126
-0.555146
-0.695304
-0.0375563
-0.0242302
-0.00822692
0.00854099
-0.106369
-0.0950726
-0.0772648
-0.0551291
-0.178628
-0.168196
-0.146599
-0.116587
-0.253933
-0.243299
-0.215582
-0.174424
-0.329524
-0.317434
-0.280824
-0.224519
-0.397977
-0.382397
-0.333752
-0.258141
-0.443625
-0.420463
-0.356744
-0.259361
-0.437103
-0.397407
-0.316817
-0.201543
-0.038524
-0.0252614
-0.00919361
0.00775165
-0.109637
-0.0986458
-0.0806974
-0.0579989
-0.185704
-0.175956
-0.154028
-0.122706
-0.267743
-0.258505
-0.230068
-0.1861
-0.354984
-0.345623
-0.307557
-0.24553
-0.442283
-0.431702
-0.380321
-0.293724
-0.514776
-0.499809
-0.431385
-0.314618
-0.530278
-0.499372
-0.411581
-0.268134
-0.0402246
-0.0271346
-0.0109998
0.00623047
-0.115643
-0.105303
-0.0871484
-0.0634224
-0.199147
-0.190858
-0.168372
-0.134525
-0.295046
-0.288921
-0.259189
-0.209532
-0.407974
-0.405159
-0.364379
-0.290088
-0.541148
-0.543867
-0.487296
-0.375488
-0.692884
-0.703582
-0.626329
-0.460901
-0.812164
-0.820911
-0.720991
-0.499335
0.0239323
0.0360137
0.043506
0.045924
0.0434509
0.0367046
0.0264872
0.0137928
-0.0319119
-0.0110817
0.00477988
0.0143684
0.017475
0.0146083
0.00663358
-0.00542154
-0.0830974
-0.0518234
-0.0268919
-0.0102866
-0.00232139
-0.00232272
-0.00917721
-0.0216553
-0.127325
-0.0834421
-0.0487421
-0.0255544
-0.0138151
-0.0122912
-0.0193918
-0.0335891
-0.159714
-0.101141
-0.056698
-0.0282713
-0.0146403
-0.0134965
-0.0225151
-0.0397916
-0.171484
-0.0975347
-0.0453807
-0.0148672
-0.0025252
-0.00444206
-0.0173942
-0.0391163
-0.148841
-0.0628914
-0.00898414
0.0176838
0.0239287
0.0154967
-0.00362048
-0.0310136
-0.0737323
0.0120673
0.0559121
0.0697917
0.0639311
0.0452927
0.0180085
-0.0158221
0.0233722
0.0356527
0.0432806
0.045781
0.0433638
0.0366806
0.0266003
0.0141024
-0.0339863
-0.0124186
0.00398888
0.0139344
0.0172638
0.0145471
0.00671094
-0.00517777
-0.087362
-0.0544419
-0.028349
-0.0110239
-0.00264471
-0.00241264
-0.00912808
-0.0215181
-0.135011
-0.0878378
-0.0509973
-0.0265881
-0.0142132
-0.0123811
-0.0193465
-0.0335163
-0.172434
-0.107703
-0.0596759
-0.0294236
-0.0149652
-0.0134955
-0.0224268
-0.0397555
-0.190376
-0.105776
-0.0483199
-0.0155354
-0.00239877
-0.00414505
-0.0171678
-0.0390885
-0.172016
-0.0697845
-0.0096136
0.0188749
0.0252427
0.0164499
-0.00309539
-0.0309369
-0.0884164
0.0155105
0.0625047
0.075245
0.0675276
0.047377
0.0190306
-0.015615
0.0222452
0.0348762
0.0427489
0.0454067
0.0431065
0.0365457
0.0266412
0.0144005
-0.0379204
-0.0149702
0.00246049
0.0130779
0.0168325
0.0144041
0.00680532
-0.00485325
-0.095546
-0.059431
-0.031109
-0.0124116
-0.00324341
-0.00256096
-0.00900407
-0.0212306
-0.150189
-0.0963733
-0.0553091
-0.0285287
-0.0149298
-0.0124979
-0.0191829
-0.0332643
-0.198572
-0.120802
-0.0654796
-0.0316111
-0.0155405
-0.0134286
-0.0221608
-0.0395375
-0.231219
-0.122755
-0.054166
-0.0168084
-0.00211835
-0.00352226
-0.0166409
-0.0388764
-0.226095
-0.084356
-0.010751
0.0213233
0.0278282
0.018308
-0.0020237
-0.0306457
-0.123573
0.0259947
0.0774835
0.0866543
0.0746681
0.0513914
0.0210067
-0.0151131
-0.0387399
-0.0866417
-0.139343
-0.197062
-0.258552
-0.319337
-0.368815
-0.385699
-0.0169942
-0.0648722
-0.11525
-0.168147
-0.221804
-0.270771
-0.302698
-0.293129
0.00737382
-0.0377834
-0.0824472
-0.126112
-0.166323
-0.196996
-0.205738
-0.16959
0.0314485
-0.00870665
-0.0451395
-0.0765518
-0.099611
-0.107724
-0.0894648
-0.0267138
-0.039469
-0.0889506
-0.14441
-0.207167
-0.277597
-0.353197
-0.424178
-0.459711
-0.0176938
-0.0672477
-0.12048
-0.178572
-0.241436
-0.305542
-0.358856
-0.363656
0.00679728
-0.0399171
-0.0871408
-0.135401
-0.183685
-0.227499
-0.254428
-0.228009
0.0310614
-0.0103302
-0.048658
-0.0833083
-0.111777
-0.128138
-0.120025
-0.0570865
-0.0406897
-0.0930867
-0.153873
-0.226901
-0.316864
-0.428098
-0.561298
-0.677748
-0.0189272
-0.0715901
-0.130389
-0.199246
-0.282747
-0.384759
-0.504418
-0.590405
0.00572124
-0.0438831
-0.0961247
-0.154014
-0.220767
-0.298698
-0.38621
-0.434066
0.0302724
-0.0133995
-0.0554356
-0.0969101
-0.137996
-0.176908
-0.208323
-0.190525
-0.34384
-0.272849
-0.176726
-0.0589481
-0.214178
-0.11737
-0.0119078
0.100163
-0.0651806
0.0467983
0.152261
0.249161
0.0940321
0.211702
0.307825
0.378924
-0.400007
-0.321641
-0.216007
-0.0757084
-0.247149
-0.133982
-0.0172734
0.114708
-0.0799421
0.0519971
0.168705
0.281915
0.110522
0.25073
0.356364
0.434821
-0.509639
-0.420253
-0.302329
-0.11953
-0.302675
-0.159893
-0.02851
0.139348
-0.105054
0.062952
0.194335
0.336969
0.153696
0.336505
0.45443
0.543806
0.0620512
0.125264
0.14383
0.135894
0.112934
0.0815764
0.045171
0.00502726
0.204813
0.241475
0.233069
0.202588
0.162487
0.118883
0.0742511
0.0291075
0.328352
0.338434
0.306843
0.258068
0.204521
0.151686
0.10134
0.0534756
0.421036
0.404612
0.355441
0.294833
0.233444
0.17578
0.123106
0.0752158
0.0921765
0.155849
0.164301
0.148104
0.119723
0.0851182
0.0468124
0.0054299
0.262979
0.290217
0.263649
0.220006
0.171813
0.123602
0.0764029
0.0296994
0.398627
0.394645
0.341692
0.277756
0.214983
0.15694
0.103733
0.0541905
0.494801
0.460002
0.389359
0.313922
0.24358
0.180869
0.125433
0.0759605
0.224722
0.244449
0.213269
0.174433
0.133393
0.0919392
0.0499127
0.00624497
0.468089
0.422416
0.335108
0.257224
0.190505
0.132633
0.0804009
0.0308013
0.62443
0.540624
0.421169
0.319203
0.235736
0.166897
0.108108
0.0554499
0.711946
0.597425
0.464457
0.353298
0.263381
0.190375
0.129599
0.0772073
0.0522855
0.0184484
-0.00885324
-0.0275304
-0.0334671
-0.0197258
0.0238838
0.109345
0.067453
0.0400619
0.0209441
0.0125007
0.0187133
0.0453163
0.0991177
0.184939
0.0755103
0.0538022
0.040872
0.0389767
0.051333
0.0818485
0.133993
0.207937
0.0761015
0.0588573
0.0498905
0.0510925
0.0647801
0.0932586
0.13775
0.196374
0.0697454
0.0556157
0.0486133
0.0502402
0.0620761
0.085352
0.120133
0.164092
0.0575168
0.0452024
0.0385303
0.0386933
0.046797
0.0635197
0.0885523
0.119913
0.0407319
0.0290783
0.0214496
0.0188304
0.0221188
0.0318481
0.0478233
0.0687448
0.02092
0.00883942
-0.000794312
-0.0071978
-0.00945594
-0.00688258
0.000729999
0.0129048
0.052095
0.0174445
-0.0109161
-0.0311008
-0.0388902
-0.0262932
0.0204195
0.123827
0.0673963
0.0395574
0.0200135
0.0112128
0.0175536
0.0459834
0.106051
0.208148
0.0755091
0.0536019
0.0406012
0.0388783
0.0520343
0.0848309
0.142294
0.226916
0.0761056
0.058806
0.0499227
0.0514488
0.0659657
0.0962772
0.144367
0.209172
0.0697428
0.0556291
0.0487492
0.0506755
0.0631438
0.0876438
0.124574
0.171838
0.0575336
0.0452577
0.038689
0.0390635
0.0475705
0.0650101
0.091207
0.124221
0.0408603
0.0292062
0.0216156
0.0191014
0.0225925
0.0326706
0.0491903
0.0708517
0.0212333
0.00909867
-0.000615769
-0.00703935
-0.00927013
-0.00662586
0.00111844
0.0134927
0.0516205
0.0154988
-0.0148925
-0.038191
-0.0502358
-0.0412055
0.00992069
0.158366
0.0671367
0.0385191
0.0181936
0.00867436
0.0151669
0.0472052
0.120735
0.262381
0.0753383
0.0531162
0.0400212
0.0386463
0.0533689
0.0907654
0.159409
0.267986
0.0759483
0.0585965
0.0499081
0.0520761
0.0682123
0.102159
0.157581
0.235488
0.0695911
0.0555514
0.0489359
0.0514515
0.065142
0.0920221
0.133198
0.18714
0.0574327
0.0452752
0.0389365
0.039734
0.049017
0.0678276
0.0962627
0.132489
0.0409006
0.0293507
0.0219008
0.0196208
0.023511
0.0342513
0.0517946
0.0748457
0.0215233
0.0094227
-0.000293438
-0.00667948
-0.00883027
-0.00604362
0.00194172
0.014669
0.236913
0.35207
0.432659
0.472472
0.295397
0.392754
0.456472
0.479658
0.294621
0.370253
0.418896
0.434454
0.261236
0.317577
0.354186
0.366238
0.211256
0.252454
0.28017
0.290764
0.153469
0.183519
0.205116
0.215509
0.0920287
0.1142
0.132008
0.143267
0.0283627
0.0451657
0.0611687
0.0744595
0.303184
0.446461
0.534252
0.565329
0.350755
0.467528
0.535952
0.550912
0.330357
0.417008
0.468389
0.478914
0.282364
0.344448
0.382514
0.391816
0.223013
0.267032
0.295468
0.304654
0.159641
0.191007
0.212935
0.222639
0.0949354
0.117673
0.135621
0.146573
0.0291818
0.0461638
0.0622316
0.0754575
0.533163
0.754423
0.854344
0.845995
0.497602
0.663164
0.740418
0.729586
0.412578
0.524543
0.581114
0.578238
0.327205
0.40161
0.442389
0.445089
0.246621
0.296358
0.326088
0.332132
0.171568
0.205473
0.227958
0.236188
0.100429
0.1242
0.142355
0.15265
0.0307573
0.0480279
0.064163
0.0772129
0.472058
0.433295
0.374451
0.309638
0.246623
0.188844
0.1373
0.0918946
0.464686
0.421767
0.364514
0.303324
0.244332
0.190507
0.142949
0.101898
0.419172
0.381992
0.333094
0.280462
0.229173
0.181996
0.140258
0.104594
0.355104
0.3269
0.28877
0.246661
0.204691
0.165401
0.13027
0.100235
0.284721
0.265696
0.238333
0.206816
0.174322
0.143047
0.11448
0.0897191
0.214483
0.203853
0.186322
0.164591
0.140936
0.117131
0.0945462
0.0743209
0.147182
0.144195
0.135492
0.122542
0.106807
0.0896123
0.0721378
0.0554758
0.0836519
0.0880227
0.0874929
0.0824903
0.0737699
0.0622509
0.0488969
0.0347078
0.545323
0.481608
0.403347
0.325882
0.255281
0.193205
0.139303
0.0925741
0.517988
0.456981
0.385927
0.315544
0.250922
0.193847
0.144483
0.102438
0.452978
0.404917
0.347384
0.28878
0.233714
0.184299
0.141304
0.104959
0.374974
0.340712
0.297577
0.25187
0.20755
0.166835
0.130898
0.100438
0.295714
0.273497
0.243391
0.20983
0.175963
0.143843
0.114802
0.0898052
0.220202
0.207968
0.189009
0.166183
0.141779
0.117514
0.0946829
0.074354
0.149857
0.14613
0.136749
0.123267
0.107167
0.0897596
0.0721961
0.055541
0.0844804
0.0886289
0.0878774
0.0826933
0.0738521
0.0622816
0.0489611
0.0349002
0.7301
0.591061
0.464401
0.358359
0.271812
0.201183
0.142791
0.0936449
0.639358
0.53205
0.429294
0.339237
0.263193
0.199794
0.147052
0.103214
0.524834
0.451484
0.375294
0.30444
0.24193
0.188257
0.142948
0.105401
0.415052
0.367667
0.314218
0.261377
0.212539
0.169166
0.131775
0.100589
0.316972
0.28819
0.252632
0.215128
0.17868
0.145017
0.115143
0.0897641
0.230865
0.215447
0.193727
0.168833
0.14305
0.117965
0.0947209
0.0742435
0.154667
0.149499
0.138827
0.124358
0.107602
0.0898298
0.0721279
0.0554903
0.0858728
0.0895774
0.0884035
0.0828885
0.0738404
0.0621934
0.0489229
0.0350239
0.00133013
-0.0122926
-0.0253284
-0.0368596
-0.0459552
-0.0516922
-0.0532376
-0.0499861
-0.0188231
-0.0352844
-0.0529248
-0.0708704
-0.0881372
-0.103523
-0.115512
-0.122251
-0.0373315
-0.0577829
-0.0812481
-0.106985
-0.134061
-0.16107
-0.185795
-0.204863
-0.0527561
-0.0783411
-0.108878
-0.143984
-0.183074
-0.224878
-0.266713
-0.303512
-0.0636693
-0.0954132
-0.134139
-0.18021
-0.233955
-0.295016
-0.361121
-0.425968
-0.0687407
-0.107345
-0.154945
-0.213182
-0.284196
-0.370022
-0.471037
-0.582183
-0.0669266
-0.112459
-0.168714
-0.239191
-0.328987
-0.444928
-0.594536
-0.784037
-0.0577509
-0.109281
-0.172505
-0.253099
-0.360007
-0.507238
-0.717525
-1.04259
0.00188783
-0.0113675
-0.0241231
-0.0354952
-0.0445863
-0.0504987
-0.0523976
-0.0496358
-0.0177702
-0.0338726
-0.0512728
-0.0691649
-0.0866459
-0.102586
-0.115496
-0.123439
-0.0358924
-0.0560131
-0.0793276
-0.105226
-0.13294
-0.161229
-0.18797
-0.20967
-0.0510831
-0.0764103
-0.106988
-0.142676
-0.183213
-0.227708
-0.273788
-0.316336
-0.0619479
-0.0935812
-0.132695
-0.180084
-0.236715
-0.303083
-0.37786
-0.455302
-0.0671697
-0.105907
-0.154435
-0.215144
-0.291383
-0.38705
-0.505135
-0.643656
-0.0656823
-0.111685
-0.169593
-0.24412
-0.342525
-0.475415
-0.65665
-0.905979
-0.0569508
-0.109333
-0.175001
-0.261415
-0.380918
-0.553882
-0.814932
-1.26086
0.00268565
-0.00995186
-0.0221446
-0.033054
-0.041827
-0.0476063
-0.0495852
-0.0471228
-0.016125
-0.0315154
-0.0482115
-0.0654633
-0.0824291
-0.0980431
-0.110872
-0.119009
-0.0334929
-0.05277
-0.0752093
-0.100272
-0.127274
-0.15507
-0.181625
-0.203506
-0.0480856
-0.0724078
-0.101922
-0.136577
-0.176228
-0.220117
-0.266007
-0.308846
-0.0585657
-0.0890136
-0.126873
-0.173049
-0.228663
-0.294394
-0.369079
-0.446941
-0.0636613
-0.101027
-0.148123
-0.207471
-0.282614
-0.377672
-0.495685
-0.63397
-0.06233
-0.106787
-0.163111
-0.236167
-0.333422
-0.465652
-0.646271
-0.889477
-0.0540326
-0.104725
-0.168695
-0.253554
-0.371821
-0.543954
-0.803508
-1.22323
0.00375327
-0.00801031
-0.0193503
-0.0294793
-0.0375978
-0.0429073
-0.044664
-0.0422882
-0.0138404
-0.0281479
-0.0436489
-0.0596288
-0.0752854
-0.0896115
-0.101272
-0.108525
-0.0300684
-0.0479557
-0.0687407
-0.0918864
-0.116709
-0.142099
-0.166141
-0.185698
-0.0436773
-0.0661937
-0.0934516
-0.125329
-0.161585
-0.201393
-0.242592
-0.280581
-0.053411
-0.0815204
-0.116357
-0.158611
-0.209094
-0.268141
-0.33443
-0.402798
-0.0580807
-0.0924672
-0.135608
-0.189554
-0.257123
-0.341482
-0.444913
-0.5656
-0.056722
-0.0974894
-0.148808
-0.214669
-0.301103
-0.416789
-0.573066
-0.787855
-0.0488513
-0.0951648
-0.153101
-0.228858
-0.332486
-0.480381
-0.700978
-1.08286
-0.0417525
-0.0289807
-0.0129042
0.00452024
-0.1217
-0.11225
-0.0940141
-0.0692526
-0.213668
-0.207337
-0.184405
-0.147731
-0.326771
-0.325022
-0.294061
-0.237495
-0.475248
-0.482565
-0.439015
-0.348417
-0.682921
-0.709376
-0.647371
-0.497925
-1.01353
-1.08187
-0.995958
-0.745123
-1.62029
-1.77258
-1.66661
-1.262
-0.0419418
-0.0296468
-0.0139001
0.00337069
-0.124127
-0.115554
-0.0975838
-0.0724505
-0.221169
-0.216518
-0.193671
-0.155453
-0.345756
-0.347557
-0.316253
-0.255355
-0.519309
-0.53465
-0.489857
-0.388331
-0.781413
-0.826512
-0.761601
-0.586058
-1.25136
-1.3649
-1.2736
-0.961499
-2.25963
-2.51815
-2.4048
-1.86615
-0.039924
-0.0282652
-0.0132214
0.00336122
-0.120154
-0.112236
-0.0950339
-0.0706896
-0.215532
-0.211657
-0.189709
-0.152404
-0.338967
-0.341781
-0.311578
-0.251726
-0.511647
-0.528242
-0.48482
-0.384601
-0.769764
-0.815593
-0.752387
-0.579298
-1.20068
-1.30927
-1.22005
-0.916794
-1.98161
-2.21227
-2.1013
-1.59507
-0.0355291
-0.0246679
-0.0107162
0.00461712
-0.10931
-0.101817
-0.0859083
-0.0635648
-0.19615
-0.192194
-0.172001
-0.138088
-0.306851
-0.308598
-0.281008
-0.22725
-0.459167
-0.472628
-0.43331
-0.344461
-0.685781
-0.724624
-0.667934
-0.515987
-1.09247
-1.18967
-1.11032
-0.842849
-1.99551
-2.21709
-2.11887
-1.65956
0.0208729
0.0338182
0.0419193
0.0447441
0.0425995
0.0362236
0.0265538
0.0145911
-0.0421615
-0.017744
0.000760348
0.0120863
0.0163102
0.0142308
0.00693802
-0.00443475
-0.104541
-0.0648132
-0.0340395
-0.0138583
-0.00382851
-0.00262241
-0.00870495
-0.0206647
-0.167741
-0.10592
-0.0599884
-0.0305561
-0.0155969
-0.0124651
-0.0187605
-0.0326228
-0.230947
-0.136236
-0.0720707
-0.0340038
-0.0160899
-0.0132029
-0.0216074
-0.038883
-0.286973
-0.144086
-0.0612205
-0.0183562
-0.0018306
-0.00276002
-0.0158431
-0.0382345
-0.312617
-0.103782
-0.0123311
0.0239621
0.0305872
0.0203202
-0.000720612
-0.0299767
-0.174638
0.0515214
0.0988971
0.100584
0.0826948
0.0557063
0.0231812
-0.0143189
0.0197045
0.0326773
0.0408267
0.0437437
0.0417657
0.0356462
0.0263167
0.0147489
-0.0445869
-0.019431
-0.000383769
0.011326
0.0158653
0.0141078
0.00718007
-0.0037876
-0.109737
-0.0678513
-0.0356487
-0.0146071
-0.00403496
-0.00241043
-0.0080905
-0.0196322
-0.17875
-0.111706
-0.0626715
-0.0315795
-0.0157378
-0.0120579
-0.0179059
-0.0313396
-0.252997
-0.146546
-0.0763275
-0.0354263
-0.0162315
-0.0126906
-0.0206335
-0.0374969
-0.327939
-0.160098
-0.0666772
-0.0197122
-0.00172297
-0.00208542
-0.0148127
-0.0368811
-0.38311
-0.122745
-0.0160076
0.0244791
0.0317942
0.0214632
0.00040359
-0.0287502
-0.259399
0.0506855
0.106912
0.1072
0.0866539
0.0578828
0.0245284
-0.0132635
0.0190976
0.0316235
0.0395164
0.0423851
0.040562
0.0347771
0.0259247
0.0149295
-0.0435556
-0.0190075
-0.000392955
0.0110969
0.0156437
0.0141119
0.00759967
-0.00280451
-0.107536
-0.0663827
-0.0347428
-0.0140422
-0.00355766
-0.00176423
-0.00704031
-0.0179815
-0.176082
-0.10982
-0.0613868
-0.0306702
-0.0149342
-0.0110742
-0.0164707
-0.0292171
-0.250614
-0.14502
-0.0753312
-0.0347204
-0.0155475
-0.0117323
-0.0191103
-0.0351499
-0.325674
-0.159572
-0.0666622
-0.0197973
-0.00163722
-0.00154361
-0.0135275
-0.0345917
-0.375736
-0.1232
-0.0174586
0.0230954
0.0308434
0.0212196
0.00113213
-0.0268085
-0.232985
0.0492068
0.103759
0.104225
0.0843586
0.0565682
0.0244332
-0.0119332
0.0191464
0.0307195
0.0380254
0.0406876
0.038998
0.0336234
0.0253892
0.0151541
-0.0387267
-0.0162145
0.000910069
0.0115107
0.0157122
0.0142844
0.00822927
-0.00144871
-0.0974278
-0.0599711
-0.0310083
-0.011963
-0.0022774
-0.000613219
-0.0055054
-0.0156638
-0.159554
-0.099801
-0.0557272
-0.027555
-0.0130244
-0.00942126
-0.014393
-0.0261941
-0.226172
-0.13183
-0.0687691
-0.0316014
-0.0138607
-0.0102283
-0.016971
-0.0317698
-0.293373
-0.145534
-0.0615297
-0.0184797
-0.001441
-0.00105607
-0.0119304
-0.0312904
-0.344857
-0.115955
-0.0189196
0.0194862
0.0277261
0.019604
0.00149047
-0.0240845
-0.249861
0.0279091
0.0850955
0.0907107
0.0755954
0.0516741
0.0228655
-0.0102859
-0.0416264
-0.0969676
-0.163628
-0.24905
-0.365327
-0.533427
-0.81113
-1.3445
-0.0200396
-0.0758761
-0.140902
-0.223031
-0.335318
-0.501076
-0.786715
-1.35937
0.00460662
-0.0479417
-0.105825
-0.175756
-0.26896
-0.406809
-0.656332
-1.19817
0.0293062
-0.0166392
-0.0628009
-0.112838
-0.172394
-0.253157
-0.406434
-0.806268
-0.0413125
-0.097826
-0.167551
-0.260171
-0.392015
-0.591767
-0.931351
-1.56873
-0.0201898
-0.0773329
-0.145635
-0.235433
-0.364394
-0.56425
-0.917417
-1.60672
0.00406767
-0.0496588
-0.110469
-0.187283
-0.295548
-0.464548
-0.777226
-1.43284
0.0284824
-0.0182581
-0.0664348
-0.121201
-0.190891
-0.292075
-0.486891
-0.965077
-0.0390714
-0.0938012
-0.161768
-0.252785
-0.383355
-0.582282
-0.921376
-1.55783
-0.0188056
-0.0741441
-0.140709
-0.228942
-0.35665
-0.555714
-0.908609
-1.59817
0.00450515
-0.0474771
-0.106661
-0.182044
-0.289173
-0.457451
-0.769898
-1.4254
0.0279891
-0.0171405
-0.0638727
-0.117413
-0.186161
-0.286835
-0.481821
-0.961161
-0.0347785
-0.0846127
-0.145796
-0.226183
-0.3386
-0.505272
-0.785493
-1.32471
-0.0157987
-0.0660705
-0.125701
-0.202913
-0.311245
-0.474661
-0.760101
-1.3336
0.00596135
-0.0412224
-0.0940784
-0.159545
-0.249139
-0.384541
-0.632974
-1.17519
0.0278211
-0.0131879
-0.0549144
-0.101142
-0.157554
-0.235532
-0.385654
-0.781887
0.836884
0.444133
0.29004
0.209003
0.149409
0.0993581
0.0531897
0.00724245
1.22823
0.69444
0.443877
0.305636
0.212354
0.142392
0.0844981
0.0319469
1.38943
0.824824
0.538143
0.371993
0.259628
0.177469
0.112432
0.0565932
1.37512
0.84883
0.570309
0.401934
0.285618
0.200183
0.133517
0.0781753
0.994102
0.524698
0.329087
0.22758
0.157828
0.103033
0.0548414
0.00809529
1.4615
0.815594
0.501805
0.332326
0.223946
0.14708
0.0862479
0.0325138
1.63538
0.955784
0.601507
0.401171
0.272095
0.182246
0.113922
0.0567712
1.59775
0.969157
0.628777
0.428701
0.296797
0.204147
0.134408
0.0778901
0.990444
0.519673
0.32386
0.222864
0.154059
0.100492
0.0537457
0.00861045
1.4541
0.808277
0.494716
0.325965
0.218724
0.143292
0.0840864
0.0320961
1.62687
0.946987
0.592979
0.39344
0.265622
0.17734
0.110753
0.0554065
1.58712
0.959226
0.619305
0.420057
0.289429
0.198386
0.130405
0.0756702
0.811987
0.423226
0.272411
0.194199
0.137766
0.0915317
0.0498018
0.00879107
1.2051
0.671029
0.421616
0.28585
0.196192
0.130703
0.0778373
0.0306499
1.36351
0.798155
0.511735
0.347956
0.23956
0.162325
0.102685
0.0524096
1.35481
0.823062
0.542149
0.375245
0.262807
0.182413
0.121225
0.0713897
0.0508593
0.013361
-0.0191616
-0.0461552
-0.0640781
-0.0624907
-0.0155128
0.207807
0.066506
0.0372562
0.0162271
0.00597293
0.0126097
0.0489159
0.140388
0.349463
0.0747454
0.0523671
0.0393096
0.0384169
0.0549951
0.0979434
0.180958
0.324187
0.0753619
0.0581075
0.0497431
0.052687
0.0706774
0.108851
0.173175
0.268137
0.0690518
0.0552201
0.0489805
0.0521871
0.067238
0.0967833
0.142858
0.204864
0.0570267
0.0451093
0.0391004
0.0403987
0.0505319
0.070827
0.101727
0.141593
0.0407276
0.0294089
0.0222079
0.0202367
0.0245733
0.0360133
0.054632
0.0791603
0.0216621
0.00975589
0.000189514
-0.00606788
-0.00809402
-0.00515474
0.0030554
0.0161002
0.0498358
0.0120478
-0.0213001
-0.0500702
-0.0706491
-0.0704884
-0.0148398
0.291048
0.0653174
0.0361706
0.0151248
0.00481321
0.012155
0.052691
0.159565
0.420868
0.0734398
0.0513838
0.0386821
0.0383608
0.0564175
0.103506
0.197177
0.365679
0.0740395
0.057194
0.0492874
0.0528848
0.0721637
0.113196
0.183629
0.290453
0.0678561
0.0544459
0.0486437
0.0523908
0.0683233
0.0995383
0.148743
0.216026
0.056115
0.0446021
0.0389768
0.0406771
0.051343
0.0724978
0.104836
0.146881
0.0402386
0.0293037
0.0224386
0.0207635
0.0253983
0.0372139
0.0563756
0.0816492
0.0216865
0.0101513
0.000888127
-0.00514523
-0.00702682
-0.00400758
0.00424636
0.0173197
0.0485313
0.0121683
-0.019962
-0.0477535
-0.0676548
-0.0673157
-0.0133242
0.26508
0.0634075
0.0354729
0.0153972
0.00579073
0.0135638
0.0541641
0.160005
0.413029
0.0711909
0.0501373
0.0381758
0.038308
0.0565343
0.103523
0.196672
0.363323
0.0717449
0.0557203
0.0483735
0.0522403
0.0714946
0.112236
0.182141
0.288098
0.0658019
0.0530742
0.0477154
0.0516342
0.0674546
0.0982913
0.146896
0.213398
0.0545519
0.0436324
0.0383989
0.040255
0.0508227
0.0716296
0.103403
0.144716
0.0393615
0.0289805
0.0225145
0.0210478
0.0256758
0.0372615
0.0559846
0.080648
0.0216212
0.010649
0.00184396
-0.00387477
-0.00561785
-0.00265869
0.00533124
0.0179532
0.0469012
0.0137502
-0.0150605
-0.0389939
-0.0541566
-0.0486772
0.0079921
0.282139
0.0607065
0.0351349
0.0170273
0.00891441
0.01717
0.0556177
0.152802
0.382703
0.0679197
0.0485676
0.03771
0.0381253
0.0552196
0.0983821
0.182631
0.331127
0.0684038
0.053617
0.0468992
0.0505744
0.068385
0.10567
0.168933
0.263636
0.0628286
0.0510425
0.0461011
0.049753
0.064356
0.0926344
0.136864
0.196841
0.0522958
0.0421543
0.0372955
0.0390108
0.0487667
0.0679048
0.0969868
0.134589
0.0380778
0.0284174
0.0223971
0.0210211
0.0252903
0.0359738
0.0531947
0.0758107
0.0214734
0.0112557
0.00305678
-0.00226608
-0.00388961
-0.00114982
0.00624157
0.0179007
1.29037
1.6935
1.79947
1.64866
0.784556
1.03597
1.12188
1.05297
0.536176
0.686014
0.748019
0.721172
0.386017
0.476829
0.520378
0.512846
0.274838
0.331531
0.36249
0.364111
0.184917
0.221668
0.244599
0.250851
0.106346
0.131162
0.149398
0.158794
0.0325326
0.0500018
0.0660786
0.0788061
1.8868
2.4225
2.53585
2.28028
1.00573
1.31908
1.41038
1.29559
0.625851
0.802081
0.866991
0.821205
0.426424
0.528267
0.57306
0.5574
0.292929
0.353997
0.3853
0.383329
0.192761
0.231075
0.253921
0.258475
0.109618
0.134812
0.152782
0.161294
0.0337369
0.0510552
0.0668019
0.0790496
1.62006
2.124
2.23497
2.00661
0.957742
1.26183
1.35105
1.24163
0.618479
0.792144
0.855349
0.808943
0.422681
0.523206
0.566627
0.549725
0.289341
0.349364
0.379568
0.376582
0.189749
0.227152
0.249099
0.252876
0.107887
0.132292
0.149494
0.15735
0.0337708
0.0503999
0.0654434
0.0770554
1.68161
2.13826
2.23648
2.01756
0.886991
1.15569
1.23504
1.13661
0.555708
0.708314
0.765004
0.7255
0.382528
0.47168
0.510998
0.497235
0.264818
0.318737
0.346327
0.34442
0.175402
0.209405
0.229597
0.233463
0.100744
0.123143
0.139051
0.146488
0.0325031
0.0478782
0.0618295
0.0726481
1.07576
0.753535
0.543643
0.396508
0.289634
0.209046
0.145822
0.0942916
0.820884
0.631141
0.481509
0.365553
0.275746
0.205257
0.148993
0.103456
0.619396
0.507904
0.406739
0.320829
0.249763
0.19149
0.143867
0.105251
0.463155
0.398054
0.33179
0.270623
0.216802
0.170675
0.13191
0.100147
0.34063
0.303646
0.261667
0.219751
0.180568
0.145387
0.114796
0.0891837
0.241911
0.222705
0.197854
0.17073
0.143549
0.117719
0.0941799
0.0736915
0.159249
0.152399
0.140294
0.124794
0.107412
0.0893564
0.0716233
0.0551147
0.0869601
0.0901119
0.0884568
0.0826047
0.07339
0.0617394
0.0486011
0.0349243
1.29251
0.850777
0.590304
0.417466
0.297996
0.211581
0.145908
0.0935229
0.943736
0.693467
0.512096
0.379155
0.280724
0.206177
0.148258
0.102249
0.681395
0.542211
0.423875
0.328084
0.251778
0.191029
0.142476
0.103728
0.492756
0.41494
0.339948
0.273449
0.216734
0.169289
0.13014
0.0984898
0.353608
0.310822
0.264571
0.219954
0.179325
0.143571
0.112948
0.0875988
0.246812
0.224952
0.198076
0.169673
0.141865
0.115891
0.0925226
0.0723752
0.1605
0.152439
0.139415
0.123368
0.105791
0.0878172
0.0703559
0.0542225
0.0866602
0.0893214
0.0873176
0.0813026
0.072115
0.0606574
0.0478369
0.0345486
1.25532
0.839389
0.580395
0.40839
0.290158
0.2053
0.141325
0.0906298
0.926768
0.683074
0.502356
0.37008
0.272799
0.199725
0.143391
0.0989282
0.671618
0.532784
0.414531
0.31935
0.24414
0.184753
0.137635
0.10026
0.484424
0.406199
0.331298
0.265435
0.20974
0.163512
0.125622
0.09516
0.346161
0.303081
0.257019
0.21301
0.173275
0.138561
0.10901
0.0846698
0.240684
0.218643
0.191954
0.164052
0.136968
0.111842
0.089361
0.0700633
0.156099
0.147847
0.13491
0.1192
0.102153
0.0848369
0.0680959
0.0526829
0.0841728
0.0865391
0.0844634
0.0785936
0.0697407
0.0587657
0.0465265
0.0338652
1.11514
0.736877
0.516798
0.369041
0.26546
0.189714
0.131779
0.0854654
0.825699
0.609911
0.453487
0.33776
0.25131
0.185438
0.134113
0.093343
0.603353
0.48201
0.378336
0.293863
0.226238
0.172261
0.129103
0.0947093
0.440262
0.371534
0.305042
0.245877
0.195324
0.153027
0.118165
0.0900444
0.317868
0.279654
0.2383
0.198384
0.162056
0.13013
0.102842
0.0803114
0.222858
0.203156
0.178994
0.153512
0.128618
0.105422
0.0846035
0.0666998
0.145607
0.138251
0.126494
0.112085
0.0963611
0.0803294
0.0647933
0.0504686
0.0793338
0.0816239
0.0797821
0.0743952
0.0662108
0.0560299
0.0446545
0.0328737
0.00505871
-0.00561359
-0.0158598
-0.0249486
-0.0321434
-0.0367214
-0.0380298
-0.0355892
-0.0109942
-0.0239083
-0.0378094
-0.052006
-0.0657243
-0.0780184
-0.0876862
-0.0932417
-0.0257517
-0.0417985
-0.0602962
-0.0806648
-0.102171
-0.123698
-0.143462
-0.158754
-0.038053
-0.0581144
-0.0821675
-0.109912
-0.14087
-0.173983
-0.207022
-0.235863
-0.0467464
-0.0716029
-0.102046
-0.138328
-0.180613
-0.228397
-0.279494
-0.328473
-0.0507608
-0.0809215
-0.118202
-0.163759
-0.218951
-0.284666
-0.35985
-0.438733
-0.0492543
-0.0847097
-0.128503
-0.183018
-0.251371
-0.336897
-0.441458
-0.562144
-0.0418452
-0.0817934
-0.130584
-0.191862
-0.270586
-0.372779
-0.504017
-0.6671
0.00652854
-0.00291047
-0.0119123
-0.0198089
-0.0259376
-0.0296663
-0.0304513
-0.0279315
-0.00775964
-0.0190861
-0.0311482
-0.0432819
-0.0547537
-0.064703
-0.0721011
-0.0757718
-0.0208272
-0.0347661
-0.050626
-0.0677859
-0.0854786
-0.102625
-0.117658
-0.128415
-0.0316197
-0.048865
-0.0692303
-0.0922398
-0.117211
-0.142951
-0.16737
-0.187122
-0.0391093
-0.060242
-0.0856664
-0.115213
-0.14849
-0.184414
-0.220521
-0.252132
-0.0423673
-0.0677186
-0.0983913
-0.134714
-0.176849
-0.224155
-0.274114
-0.320744
-0.0407002
-0.0701655
-0.105633
-0.148073
-0.198397
-0.256702
-0.320789
-0.383652
-0.0338463
-0.0667007
-0.105607
-0.152124
-0.207782
-0.273144
-0.345871
-0.415896
0.00806965
-8.26517e-05
-0.00779184
-0.0144607
-0.0195093
-0.0224046
-0.0227156
-0.0201958
-0.00435354
-0.0140307
-0.0241956
-0.0342272
-0.0434548
-0.0511297
-0.0564188
-0.058454
-0.0156436
-0.0274087
-0.0405752
-0.0545141
-0.0684746
-0.0814814
-0.0922479
-0.0991731
-0.0248636
-0.0392335
-0.0558869
-0.074241
-0.093521
-0.112561
-0.129599
-0.14216
-0.0311212
-0.0485
-0.0689659
-0.0920674
-0.117103
-0.142805
-0.166957
-0.186078
-0.0336398
-0.0542159
-0.0785065
-0.106287
-0.13704
-0.169512
-0.201106
-0.227254
-0.0318774
-0.0554953
-0.083128
-0.114833
-0.150334
-0.188445
-0.226223
-0.257952
-0.0256845
-0.0517321
-0.0815902
-0.115545
-0.15344
-0.193941
-0.233378
-0.264102
0.00959126
0.00269742
-0.00376026
-0.00926027
-0.0133088
-0.0154708
-0.01542
-0.0130047
-0.000985411
-0.00906778
-0.0174252
-0.0254968
-0.0326933
-0.0383916
-0.0419499
-0.0427655
-0.0105313
-0.0202226
-0.0308662
-0.0418636
-0.0525278
-0.062031
-0.0693781
-0.0734523
-0.0182317
-0.0299007
-0.0431437
-0.0573496
-0.0717563
-0.0853395
-0.0967262
-0.104208
-0.023332
-0.0372445
-0.0532536
-0.0707776
-0.0890219