/*--------------------------------*- C++ -*----------------------------------*\
  =========                 |
  \\      /  F ield         | OpenFOAM: The Open Source CFD Toolbox
   \\    /   O peration     | Website:  https://openfoam.org
    \\  /    A nd           | Version:  7
     \\/     M anipulation  |
\*---------------------------------------------------------------------------*/
FoamFile
{
    version     2.0;
    format      ascii;
    class       surfaceScalarField;
    location    "0.25";
    object      phi;
}
// * * * * * * * * * * * * * * * * * * * * * * * * * * * * * * * * * * * * * //

dimensions      [0 3 -1 0 0 0 0];

internalField   nonuniform List<scalar> 
22560
(
0.510528
0.0106767
6.05391e-05
0.510131
0.0120663
1.10238e-05
0.509236
0.0142721
-1.77116e-05
0.507784
0.0172798
3.03013e-05
0.505842
0.0209742
0.000108557
0.50351
0.025159
0.000220866
0.500961
0.0294661
0.000357086
0.0333456
0.00049341
0.498464
0.511918
0.00971733
1.13118e-05
0.512349
0.0116417
-6.16477e-06
0.512212
0.0143499
5.93213e-05
0.511449
0.0178406
0.000201463
0.509984
0.0220094
0.000430191
0.507753
0.0266301
0.000760191
0.504763
0.0312761
0.00117975
0.0352975
0.0016355
0.501175
0.513833
0.00798538
-1.66407e-05
0.51506
0.0103623
5.25996e-05
0.51569
0.0135078
0.00021175
0.515596
0.017434
0.000501004
0.514562
0.0220755
0.000967667
0.512332
0.0272123
0.00164778
0.508702
0.0323721
0.00253401
0.0367724
0.0035277
0.5037
0.516245
0.0054495
3.24721e-05
0.518226
0.00820359
0.000177696
0.519625
0.0116368
0.00047237
0.520231
0.01583
0.000998038
0.519669
0.020785
0.00185248
0.517432
0.0263224
0.00312612
0.513021
0.0319438
0.0048397
0.0367177
0.00683363
0.506242
0.519029
0.00223972
0.00010889
0.521691
0.005171
0.000370162
0.523847
0.00861111
0.000870088
0.525204
0.0127159
0.0017565
0.525203
0.0175626
0.00322406
0.523019
0.0230256
0.00548038
0.517734
0.0285915
0.00863774
0.0331733
0.0124787
0.5088
0.521998
-0.00143484
0.00021007
0.525179
0.00135921
0.000630837
0.528005
0.00437447
0.00141125
0.530103
0.00781182
0.00280623
0.530705
0.0117842
0.005176
0.528603
0.0161731
0.00895416
0.522326
0.0203893
0.0144797
0.0231081
0.0215431
0.510848
0.524842
-0.00523569
0.000318352
0.528255
-0.00298705
0.00093397
0.531512
-0.000937612
0.00205488
0.534151
0.00108575
0.00408687
0.535169
0.00312823
0.0076378
0.532897
0.00493108
0.0135142
0.525187
0.00559523
0.0225038
0.00310232
0.0345955
0.510597
0.527143
0.000406214
-0.00870136
0.53036
0.00122409
-0.00742777
0.533596
0.00268963
-0.00686285
0.536252
0.00538099
-0.00695145
0.537009
0.0101955
-0.00782457
0.533565
0.0183899
-0.0100145
0.522805
0.0313069
-0.0149516
0.0486264
0.503291
-0.02601
0.0525431
0.0124877
-5.55981e-06
0.0521245
0.0141277
-7.31975e-05
0.0510664
0.0167656
-9.9654e-05
0.0494007
0.020369
-4.34615e-05
0.0471662
0.0248444
8.4257e-05
0.0444633
0.0299669
0.000283314
0.0414865
0.035304
0.000535838
0.0401809
0.000800623
0.0385398
0.0541844
0.0114117
-8.17177e-05
0.0547366
0.0136726
-0.000103237
0.0546436
0.0169271
-9.17745e-06
0.0538379
0.0211565
0.000219655
0.0522206
0.0262749
0.000617004
0.0496954
0.0320419
0.00121037
0.0462319
0.0379628
0.00198444
0.0432294
0.00284626
0.0419727
0.0564751
0.00937533
-0.000114602
0.0579957
0.0122337
-2.9082e-05
0.058862
0.0160489
0.00022364
0.0589236
0.0208765
0.00071945
0.0579182
0.0266978
0.00155025
0.0555015
0.0333124
0.00279395
0.0513481
0.0401967
0.0044536
0.0463709
0.00636209
0.0453723
0.0593638
0.00644041
-6.2463e-05
0.0618355
0.00977704
0.000162705
0.0637025
0.0139932
0.000661046
0.0647339
0.0192543
0.00158881
0.0644787
0.0256625
0.00314293
0.0622706
0.0331258
0.0055208
0.0573475
0.0411506
0.00880893
0.0485804
0.0127626
0.049209
0.0627395
0.0027159
5.80519e-05
0.0660999
0.00629734
0.00048946
0.0690111
0.0105921
0.00135998
0.0711734
0.0158894
0.00295921
0.0719315
0.0224427
0.00568575
0.0702103
0.0303225
0.0100048
0.0645996
0.0391315
0.0162674
0.047557
0.0242512
0.0538505
0.0663813
-0.00156894
0.000235362
0.0704735
0.0018834
0.000952583
0.0744012
0.00573491
0.00234076
0.0778226
0.0103662
0.00490792
0.0798853
0.0161423
0.00941364
0.0790313
0.0232584
0.0168724
0.0729466
0.0313699
0.0283261
0.0388536
0.0440102
0.0591829
0.0699152
-0.00602495
0.000437837
0.0744291
-0.00320624
0.00150972
0.0791646
-0.000484828
0.00353917
0.0837606
0.00250265
0.0073544
0.0871825
0.00606783
0.0142904
0.0873289
0.0102703
0.0263559
0.080721
0.0143618
0.0461199
0.0151081
0.0758409
0.0632213
0.0728226
0.000617327
-0.0101124
0.0772546
0.0020628
-0.00847688
0.0822833
0.00475856
-0.00758241
0.0874882
0.00992097
-0.0072423
0.0915553
0.0196313
-0.00743503
0.0915251
0.0373124
-0.00862208
0.0818152
0.0682763
-0.0128977
0.117631
0.0560547
-0.0281362
0.0123661
0.0125592
-0.000105065
0.0119774
0.0142758
-0.000247143
0.0109715
0.0170377
-0.000326142
0.00936323
0.0208513
-0.000320204
0.00717929
0.0256556
-0.000220074
0.00450286
0.0312487
-2.06397e-05
0.00150805
0.0371971
0.000263376
0.0427653
-0.00151655
0.000589454
0.014084
0.0115085
-0.000281595
0.014731
0.013893
-0.000367492
0.0147665
0.0173409
-0.00034787
0.0141242
0.0218911
-0.000177768
0.0126875
0.0275168
0.000192514
0.0103145
0.0340299
0.000802212
0.00689632
0.040953
0.0016467
0.0473938
0.00248021
0.00263392
0.0164816
0.00951663
-0.000388688
0.0181843
0.0125509
-0.000389637
0.0193071
0.0166605
-0.000218743
0.0197101
0.0219864
0.000221171
0.0191089
0.0286224
0.00104578
0.0170749
0.0364955
0.00236237
0.0131058
0.0451704
0.0042053
0.0535827
0.00685814
0.0064208
0.0195395
0.00662306
-0.000402261
0.0223203
0.0102063
-0.000273487
0.0246491
0.0148483
0.000144358
0.0263311
0.0208554
0.00103783
0.0269023
0.0285424
0.00265174
0.0255628
0.0381002
0.00525555
0.0211954
0.0493156
0.0090311
0.0610582
0.0126708
0.0138117
0.0231675
0.00291972
-0.000317813
0.0270218
0.00682862
1.288e-05
0.030719
0.0116941
0.00081707
0.0340612
0.0180323
0.00244003
0.036436
0.0264704
0.00538293
0.0366024
0.0376448
0.0102938
0.0324998
0.0518647
0.017821
0.0682803
0.021415
0.0281139
0.0271518
-0.0013817
-0.000142342
0.0319916
0.00246305
0.00047836
0.03719
0.0069991
0.00183724
0.042649
0.0129326
0.00454867
0.0477301
0.0212065
0.0095964
0.0507897
0.0329969
0.0184606
0.0484719
0.0494101
0.0330985
0.0703896
0.0351465
0.0552262
0.0311032
-0.00590367
9.35087e-05
0.0366754
-0.00268397
0.00108459
0.0433339
0.000727429
0.00315236
0.0512188
0.00507847
0.00732366
0.0599036
0.0114018
0.0154104
0.0676103
0.0210749
0.0305712
0.0696546
0.0355493
0.0579364
0.0539282
0.056171
0.105786
0.0344447
-0.0101006
0.000337942
0.0402489
-0.00815443
0.00172906
0.0479302
-0.00675446
0.00455906
0.0579323
-0.0053904
0.0103878
0.0701715
-0.00343758
0.0222315
0.0828348
-0.000287809
0.0460119
0.0884997
0.00403014
0.0941306
0.0694417
-0.00298306
0.1936
0.496352
0.0361279
0.000597381
0.494967
0.037197
0.000637789
0.494576
0.0362415
0.000599646
0.0334067
0.000492912
0.49529
0.497387
0.0378938
0.00202292
0.494031
0.0383411
0.00221181
0.491811
0.0363353
0.00212608
0.03218
0.00178131
0.491256
0.497807
0.0393887
0.00439769
0.492064
0.0392613
0.00482316
0.487756
0.0360255
0.00461796
0.0301575
0.0038071
0.485971
0.49766
0.0393312
0.00863951
0.488886
0.0385156
0.00951955
0.482024
0.0338204
0.00906755
0.0258791
0.00730949
0.478993
0.496843
0.0351811
0.0161068
0.484261
0.0332281
0.0178692
0.474244
0.0268914
0.0169464
0.0168539
0.0133072
0.469962
0.494948
0.0225287
0.0285528
0.477983
0.0182806
0.0319117
0.464334
0.01038
0.0301606
-0.000731222
0.0229969
0.458923
0.490894
-0.00478869
0.047021
0.470078
-0.0136973
0.0527933
0.453175
-0.0224695
0.0497529
-0.0313848
0.036708
0.44712
0.482204
0.0624563
-0.0461582
0.461167
0.0689149
-0.0615752
0.444005
0.0642571
-0.0695651
0.0449207
0.439006
-0.0713065
0.0360148
0.0437367
0.00101717
0.034324
0.0451447
0.00112337
0.0338018
0.0439747
0.00108654
0.0404031
0.000920494
0.0346026
0.0373602
0.0467713
0.00360084
0.033184
0.0475398
0.00399279
0.0303493
0.0450638
0.00387172
0.0397085
0.0032608
0.0295644
0.0380687
0.0503899
0.00808264
0.0307697
0.0507006
0.00896139
0.0251744
0.0466513
0.00862587
0.0387993
0.00711299
0.0227777
0.0383104
0.0534411
0.0164868
0.0268133
0.0533446
0.0183727
0.0175889
0.0473571
0.0175862
0.0361567
0.0141515
0.0133895
0.0381446
0.0530084
0.0322453
0.020936
0.0521478
0.0362746
0.00674317
0.0438824
0.034614
0.0287252
0.0271206
0.000361303
0.0373068
0.0422851
0.0611522
0.0127461
0.0390161
0.0696041
-0.00808839
0.0284768
0.0664007
0.0103048
0.0506496
-0.0173206
0.0344869
0.00606507
0.111975
0.00211681
-0.00475849
0.128938
-0.0264457
-0.0166391
0.123431
-0.031964
0.0921239
-0.0395928
0.0244494
0.166554
-0.0664275
-0.010175
0.190923
-0.0921418
-0.0427948
0.183203
-0.102966
0.132977
-0.0592609
-0.103554
-0.00417588
0.0469388
0.000888376
-0.00602446
0.0486705
0.00108231
-0.00667897
0.0473973
0.00112462
0.043307
-0.00593475
0.00101998
-0.0025378
0.0520119
0.0035457
-0.00726087
0.0533129
0.00407343
-0.0106045
0.0505804
0.0040323
0.0441956
-0.0116673
0.003435
-0.00135059
0.0597872
0.00851607
-0.00991705
0.0611771
0.00966364
-0.0167189
0.0566034
0.00940471
0.0466068
-0.0197766
0.00775946
-0.00013838
0.0704949
0.0185884
-0.0143751
0.0726516
0.0211349
-0.0262665
0.0656765
0.0204045
0.0500504
-0.0319353
0.0163766
0.00173566
0.0831223
0.0392972
-0.0212211
0.0867183
0.0451648
-0.0411919
0.0767606
0.0435006
0.0529028
-0.0509203
0.0339967
0.00504955
0.091728
0.0826435
-0.0311464
0.0961099
0.0964085
-0.0642265
0.0831419
0.0930995
0.0497305
-0.0815169
0.0711123
0.00998273
0.0697313
0.18016
-0.0444689
0.0664764
0.213023
-0.0978206
0.0523598
0.207565
0.0178606
-0.131892
0.158065
0.00773984
-0.0730343
0.371021
-0.0586237
-0.114869
0.438632
-0.130754
-0.125927
0.43362
-0.198649
-0.120825
0.339556
0.496997
0.029279
0.000354678
0.499369
0.0246695
0.000233438
0.501999
0.0202667
0.000150686
0.504537
0.0165016
0.000101872
0.506743
0.013578
7.29071e-05
0.508487
0.0115527
4.98074e-05
0.509741
0.010404
2.11432e-05
0.0101246
3.8837e-05
0.492468
0.0267721
0.00129477
0.495015
0.0212826
0.000839678
0.498255
0.0165264
0.00050089
0.501618
0.0128583
0.000280584
0.50472
0.0103289
0.000146939
0.507356
0.00885045
6.57581e-05
0.509444
0.00830514
1.08976e-05
0.00861564
-1.67989e-05
0.487062
0.023016
0.00266511
0.490289
0.016414
0.00164154
0.494581
0.0113186
0.000915919
0.499068
0.00790361
0.000467429
0.503223
0.00596151
0.000212772
0.506803
0.00519548
7.4495e-05
0.509748
0.00535927
1.7484e-06
0.00630743
-2.88096e-05
0.480535
0.0166423
0.00483134
0.485182
0.00900192
0.00276545
0.491114
0.00396878
0.00141737
0.497071
0.00129511
0.000651534
0.502415
0.000361066
0.000256211
0.506942
0.000600924
6.74475e-05
0.510679
0.0016341
-1.16492e-05
0.00326724
-2.22657e-05
0.472922
0.00559587
0.00808588
0.480051
-0.00228734
0.00416026
0.488317
-0.00617498
0.00187768
0.496038
-0.00715151
0.000725794
0.502592
-0.00640154
0.000208382
0.507944
-0.00475709
6.02551e-06
0.512303
-0.00267737
-4.71238e-05
-0.000343825
-1.37487e-05
0.464931
-0.0126484
0.0122355
0.475921
-0.0185569
0.00527982
0.487131
-0.0192401
0.00185553
0.496654
-0.0170925
0.000417933
0.504168
-0.0138382
-7.74392e-05
0.51
-0.0104068
-0.000182447
0.51464
-0.00717943
-0.000138377
-0.00422167
-1.56541e-05
0.458651
-0.0395296
0.0153503
0.474826
-0.039129
0.00439781
0.48902
-0.0337762
0.000341356
0.499787
-0.0270837
-0.000775116
0.50756
-0.0207831
-0.000829104
0.513232
-0.0154827
-0.000595353
0.517625
-0.0112451
-0.000327025
-0.00790757
-4.93478e-05
0.458547
0.00944744
-0.0685176
0.479807
-0.0026745
-0.0577149
0.495584
-0.00441094
-0.0451416
0.506085
-0.00350014
-0.0340851
0.512906
-0.00226329
-0.0253406
0.517526
-0.001299
-0.0188033
0.521017
-0.000634625
-0.0141019
-0.000130323
-0.0108441
0.0366058
0.0352028
0.000690095
0.0394046
0.0294573
0.000483555
0.0425033
0.0240394
0.000339293
0.0454841
0.0194588
0.000248603
0.0480679
0.0159338
0.000185893
0.0501024
0.0135095
0.000129013
0.0515252
0.012152
6.80063e-05
0.0118176
2.77618e-05
0.0309948
0.0326906
0.00237653
0.0340661
0.0256763
0.0015494
0.0379554
0.0197163
0.000934834
0.0419642
0.0151974
0.000533131
0.0456392
0.012122
0.000283705
0.0487488
0.010342
0.000123593
0.0512091
0.00969266
9.86071e-06
0.0100618
-6.71806e-05
0.0241308
0.0290574
0.00494523
0.028157
0.0202689
0.00302275
0.0334266
0.0136868
0.00167588
0.0388567
0.00938563
0.000849094
0.043828
0.00698573
0.000377728
0.0480803
0.00604993
0.000114321
0.0515674
0.00624325
-3.58652e-05
0.00737324
-0.00011365
0.0154964
0.0225719
0.0092099
0.0215561
0.0117887
0.00518595
0.029038
0.00500383
0.0026184
0.0363667
0.00152623
0.00118218
0.0428257
0.000338017
0.000444861
0.0482351
0.000621814
8.62178e-05
0.0526795
0.00186569
-7.8443e-05
0.00382348
-0.000126973
0.0048023
0.0102075
0.0160093
0.0145913
-0.00185409
0.00801409
0.0253424
-0.00740762
0.00353805
0.0350118
-0.00875294
0.00133552
0.0430075
-0.00780835
0.000359039
0.0494299
-0.0057651
-2.94465e-05
0.0546252
-0.00322611
-0.000150637
-0.000405729
-0.000123433
-0.00746347
-0.0129135
0.0254994
0.00852745
-0.0230705
0.0105054
0.0235942
-0.024198
0.00357915
0.0357169
-0.0212406
0.000782966
0.0449337
-0.0169443
-0.000158414
0.0519291
-0.0125755
-0.000367402
0.0574519
-0.00857398
-0.000313232
-0.00496313
-0.000128155
-0.0186847
-0.0529732
0.0345019
0.00637058
-0.0527358
0.00900778
0.0260017
-0.0441124
0.000624628
0.0397822
-0.0342933
-0.00150286
0.0492342
-0.0256668
-0.00155866
0.0559382
-0.0187604
-0.00111444
0.0611052
-0.0134246
-0.00064335
-0.00930707
-0.000178945
-0.0206138
0.0216789
-0.103852
0.0138894
-0.00740192
-0.0825116
0.0355373
-0.0095509
-0.0606203
0.0484238
-0.00699341
-0.0436866
0.056234
-0.00431132
-0.031429
0.0613749
-0.00240881
-0.0227915
0.0653144
-0.00118394
-0.0168148
-0.000304072
-0.0127652
-0.00389247
0.0373458
0.000831696
-0.00100798
0.0308756
0.000653495
0.00217362
0.024903
0.000523222
0.00521266
0.0199486
0.000428765
0.00782994
0.0161932
0.000342353
0.00988333
0.0136387
0.000242883
0.0113208
0.0122208
0.000123927
0.0118739
1.81751e-06
-0.0101806
0.0357185
0.00251724
-0.00687868
0.0274631
0.00165993
-0.00274119
0.020672
0.00102832
0.0014622
0.0156664
0.000611986
0.00526721
0.0123329
0.000339021
0.0084578
0.0104312
0.000140488
0.0109737
0.0097411
-2.63193e-05
0.0101194
-0.000172415
-0.0182108
0.0337754
0.00532251
-0.0135992
0.0226723
0.00320203
-0.00776032
0.0147577
0.00175141
-0.00191228
0.00979428
0.000873119
0.00332632
0.00710661
0.000365374
0.00774163
0.00607086
5.94231e-05
0.0113392
0.00625556
-0.00014792
0.00742821
-0.000298866
-0.0290401
0.0297065
0.0103837
-0.021535
0.0146728
0.00568033
-0.0128426
0.00589337
0.00279035
-0.00471685
0.00163617
0.0012145
0.00220737
0.000219602
0.000407636
0.0078796
0.000492107
-7.24731e-06
0.012494
0.00180117
-0.000238467
0.00385945
-0.000370263
-0.0438394
0.0194364
0.0191985
-0.0305952
0.000225167
0.0092175
-0.0174197
-0.00768362
0.00393953
-0.00636156
-0.00952167
0.00143523
0.00234733
-0.00846709
0.000336859
0.00912739
-0.00619031
-0.000127078
0.0145388
-0.00343427
-0.000326601
-0.000419951
-0.000393551
-0.0633387
-0.00651926
0.0332769
-0.0394552
-0.025989
0.012836
-0.0199165
-0.0278799
0.00423665
-0.00566067
-0.0239345
0.00094004
0.00446333
-0.0185919
-0.000157583
0.0118309
-0.0134787
-0.000446606
0.0175605
-0.00900099
-0.000476054
-0.00506684
-0.000393461
-0.0858091
-0.0694278
0.0513277
-0.0437891
-0.0707947
0.0117935
-0.0170066
-0.055
0.000962201
-0.000689959
-0.040209
-0.00154505
0.00947841
-0.028701
-0.00161793
0.0163186
-0.0202491
-0.0011842
0.0215486
-0.0140999
-0.000774426
-0.00952359
-0.000410593
-0.0928466
-0.185432
0.0318812
-0.0311528
-0.126241
-0.0136497
-0.00272033
-0.0804615
-0.0125219
0.0108964
-0.0526785
-0.00814062
0.0180977
-0.0355224
-0.00469124
0.0226183
-0.0246513
-0.00252715
0.0262485
-0.017634
-0.00128003
-0.0130682
-0.000479353
0.528456
-0.0113263
0.000448176
0.530954
-0.0113513
0.00142472
0.533524
-0.0125747
0.0031419
0.535362
-0.0151014
0.00631248
0.534697
-0.0191984
0.0120391
0.528235
-0.0253711
0.0218184
0.511098
-0.0345249
0.0367106
-0.0481901
0.0504314
0.482846
0.52844
-0.0126855
0.000431599
0.529719
-0.0140971
0.00146657
0.530962
-0.0170619
0.00324392
0.531196
-0.0218538
0.00651877
0.528392
-0.0288404
0.012446
0.518839
-0.0383679
0.0225496
0.497159
-0.0504831
0.0376379
-0.064365
0.048922
0.464412
0.526999
-0.0125303
0.000357777
0.526695
-0.0151111
0.00131832
0.52608
-0.0193579
0.00291048
0.524095
-0.0256747
0.00580577
0.518754
-0.03451
0.0110109
0.506676
-0.0461228
0.0198331
0.483337
-0.0599954
0.032851
-0.073571
0.0411512
0.451392
0.524356
0.000244123
-0.0108515
0.522349
0.00100666
-0.0141107
0.519622
0.00218456
-0.0188154
0.515082
0.00422391
-0.0253589
0.50697
0.00771619
-0.0341143
0.492744
0.0132934
-0.0451903
0.469802
0.020749
-0.0578016
0.0220952
0.442803
-0.0686672
0.074527
-0.0132309
0.000726188
0.0782128
-0.0132078
0.00246976
0.0826864
-0.0145857
0.00567153
0.0873275
-0.0174532
0.0118823
0.0901919
-0.0220895
0.0238291
0.0862478
-0.0291052
0.0462456
0.0635981
-0.0398563
0.0863188
-0.0578039
0.130101
0.0135958
0.0745697
-0.0148717
0.000737027
0.0768267
-0.0165926
0.00259436
0.0797842
-0.0202365
0.00593723
0.0826139
-0.0262088
0.0124447
0.0829729
-0.0350948
0.0250923
0.0748552
-0.0475361
0.0490982
0.0440312
-0.0638196
0.0924252
-0.0825245
0.13571
-0.0180358
0.0728032
-0.0147292
0.000646366
0.0730886
-0.0179299
0.00237027
0.0736675
-0.0232824
0.00537752
0.0735465
-0.0314707
0.0111887
0.0703654
-0.0434046
0.0225017
0.058493
-0.0599917
0.0441612
0.024822
-0.0812098
0.0839122
-0.102591
0.122899
-0.0368585
0.069498
0.000479977
-0.0127766
0.0675631
0.00183872
-0.0168271
0.065214
0.00405749
-0.0228062
0.0612471
0.0081684
-0.0314483
0.0533879
0.0158845
-0.0437136
0.0371348
0.0302167
-0.0606619
0.00318567
0.0560831
-0.0825946
0.0762157
-0.0494643
-0.104062
0.0364909
-0.0133466
0.00053509
0.0417659
-0.013213
0.00225329
0.0494667
-0.0144719
0.00568817
0.0601474
-0.0170941
0.0129054
0.0735647
-0.0211384
0.0281126
0.0856195
-0.0267968
0.0606998
0.0733514
-0.034612
0.137229
-0.0462161
-0.0544461
0.301132
0.0366592
-0.0151039
0.00064689
0.0405213
-0.0169764
0.00249573
0.0468572
-0.0209963
0.00612574
0.0561242
-0.0277391
0.0138226
0.0678076
-0.0380967
0.0303672
0.0765783
-0.0531442
0.066675
0.0533534
-0.0732258
0.154264
-0.0900964
-0.110725
0.343668
0.034731
-0.0150346
0.000657731
0.0363849
-0.0186288
0.0023687
0.0399351
-0.0248146
0.0056456
0.045552
-0.0347639
0.0125966
0.0526121
-0.0503622
0.0277072
0.0563415
-0.0743066
0.0615942
0.0297067
-0.108992
0.146313
-0.141307
-0.133781
0.337597
0.0309955
-0.0130785
0.000582178
0.0299494
-0.0176444
0.00190042
0.0295639
-0.0246616
0.00429
0.029289
-0.0355312
0.00921059
0.0278082
-0.0526802
0.0196833
0.0210797
-0.0804344
0.043073
-0.0105675
-0.126185
0.104923
-0.149795
-0.185776
0.259912
0.466343
-0.0665789
0.0369238
0.45292
-0.0797443
0.0315926
0.442433
-0.0845364
0.0254579
-0.0816297
0.0100915
0.442665
0.453091
-0.0773109
0.0220531
0.447953
-0.0852262
0.0106203
0.445259
-0.0852261
0.00338392
-0.0773108
-0.010318
0.451258
0.445312
-0.0816908
0.0104593
0.447953
-0.0845906
-0.00327581
0.453037
-0.0797985
-0.0105122
-0.0666399
-0.0219118
0.464278
0.442494
-0.00991406
-0.071468
0.45292
-0.0252908
-0.0697257
0.466283
-0.0314254
-0.0617358
-0.0367463
0.482709
-0.0463197
-0.00366148
-0.0844305
0.0721841
-0.0211176
-0.104473
0.0613795
-0.0406721
-0.111094
0.053141
-0.106896
0.0223945
-0.0496335
-0.0246394
-0.0950132
0.0392394
-0.0281802
-0.105906
0.0155948
-0.0359283
-0.105906
0.00594425
-0.0950132
-0.0211361
-0.0369926
-0.0358911
-0.10694
0.0214185
-0.0281802
-0.111112
-0.00578138
-0.0246767
-0.10449
-0.0154319
-0.0844748
-0.038957
-0.0181699
-0.0406078
-0.0219893
-0.103721
-0.0211176
-0.0527936
-0.103099
-0.00372585
-0.061032
-0.0922753
-0.0717789
0.0134266
-0.0665946
-0.0426558
-0.0126405
-0.0617253
-0.0344201
-0.0929194
-0.0415914
-0.0416949
-0.149655
-0.0707617
-0.0133642
-0.0689781
-0.020609
-0.0840163
-0.020609
-0.0133642
-0.133483
-0.084072
-0.0416551
-0.0689781
-0.0414843
-0.070706
-0.034313
-0.0126007
-0.110427
-0.0929039
-0.120536
-0.0617253
-0.125456
-0.0426714
-0.114399
-0.0543054
-0.0727455
0.469572
-0.0735066
-0.0219185
0.492577
-0.059958
-0.0207615
0.506868
-0.0461018
-0.0133307
0.515022
-0.0344972
-0.00774208
0.519588
-0.0256663
-0.00423995
0.522331
-0.0193521
-0.00219421
0.524348
-0.0151067
-0.00101258
-0.0125265
-0.000248444
0.483085
-0.064365
-0.0409686
0.506493
-0.050483
-0.0328828
0.518643
-0.0383679
-0.0198848
0.524031
-0.0288404
-0.0110441
0.526043
-0.0218537
-0.00582529
0.526675
-0.0170619
-0.00292174
0.52699
-0.0140971
-0.00132501
-0.0126855
-0.000362575
0.496907
-0.0482543
-0.0487394
0.518656
-0.0345622
-0.0376696
0.528281
-0.025392
-0.0226013
0.531131
-0.0192111
-0.0124792
0.530925
-0.0151097
-0.00653832
0.529699
-0.0125805
-0.00325516
0.528431
-0.0113557
-0.00147328
-0.0113301
-0.000436384
0.510868
-0.0502546
-0.0261596
0.528067
-0.0367229
-0.0150381
0.534594
-0.0218556
-0.0100631
0.535302
-0.012065
-0.00785363
0.53349
-0.00632858
-0.00696962
0.530936
-0.00315153
-0.00687496
0.528448
-0.00143068
-0.00743663
-0.000452485
-0.00870882
0.00280248
-0.102509
-0.0756971
0.0369083
-0.0811809
-0.0561979
0.0532706
-0.0599786
-0.0303347
0.0611833
-0.0433952
-0.0159462
0.0651789
-0.031463
-0.0082016
0.0675444
-0.0232758
-0.00407544
0.0694899
-0.017924
-0.00184876
-0.0147235
-0.000486741
0.0244026
-0.0825245
-0.122348
0.0582512
-0.0638196
-0.0840927
0.0702442
-0.0475361
-0.0443203
0.0734812
-0.0350948
-0.0225814
0.0736314
-0.0262088
-0.0112297
0.0730692
-0.0202365
-0.00539887
0.0727947
-0.0165926
-0.00238188
-0.0148717
-0.000654044
0.0436118
-0.0578863
-0.135159
0.0746134
-0.0398852
-0.0926057
0.0828517
-0.0291184
-0.0492573
0.0825487
-0.0220989
-0.025172
0.0797481
-0.0174609
-0.0124857
0.0768073
-0.0145923
-0.00595858
0.0745612
-0.0132137
-0.002606
-0.0132365
-0.000744679
0.063215
-0.129583
-0.0283464
0.0860213
-0.0864337
-0.0129808
0.0900746
-0.0463636
-0.00866376
0.0872636
-0.0238908
-0.00746205
0.0826512
-0.0119155
-0.00726153
0.078194
-0.00568948
-0.00759724
0.0745188
-0.00247983
-0.0084893
-0.000732928
-0.0101238
-0.0112246
-0.141188
-0.258371
0.0208721
-0.109025
-0.10551
0.0277355
-0.0743324
-0.0433271
0.0292534
-0.0503698
-0.0197729
0.0295444
-0.0347635
-0.00925149
0.0299387
-0.0248112
-0.00430996
0.0309907
-0.0186242
-0.00191049
-0.0150297
-0.000588363
0.0289761
-0.0900964
-0.335899
0.056141
-0.0732258
-0.147057
0.0525564
-0.0531442
-0.0619239
0.0455256
-0.0380968
-0.0278236
0.0399195
-0.0277391
-0.0126481
0.0363757
-0.0209964
-0.00566978
0.0347266
-0.0169764
-0.00238059
-0.0151039
-0.000664981
0.0526228
-0.0463342
-0.341971
0.0763778
-0.0345782
-0.155008
0.0677519
-0.026771
-0.0670046
0.0560978
-0.0211309
-0.0304837
0.0468416
-0.0170945
-0.0138741
0.040512
-0.0144754
-0.00614992
0.0366547
-0.0132175
-0.00250765
-0.0133514
-0.00065415
0.0726942
-0.00332652
-0.29959
0.085412
0.00408622
-0.137816
0.073492
-0.000260864
-0.0609538
0.0601117
-0.0034393
-0.0282021
0.0494471
-0.00539915
-0.0129463
0.0417552
-0.00676485
-0.00570812
0.0364861
-0.00816487
-0.0022634
-0.0101108
-0.000541328
0.521023
-0.00791779
0.000126702
0.51754
-0.0112575
0.000629786
0.512934
-0.0155005
0.00129162
0.506134
-0.0208114
0.00225216
0.495666
-0.0271311
0.00348501
0.479937
-0.0338583
0.00439677
0.458719
-0.0392738
0.00269042
-0.0397739
-0.00930776
0.439133
0.517628
-0.00423276
4.63564e-05
0.513241
-0.00719266
0.000322988
0.507577
-0.0104261
0.00058928
0.499815
-0.0138691
0.000819826
0.489065
-0.0171429
0.000761287
0.474889
-0.0193219
-0.000360402
0.458722
-0.0186868
-0.00441949
-0.0128411
-0.0153705
0.447159
0.514641
-0.000353333
1.32829e-05
0.510002
-0.00268805
0.000134916
0.504172
-0.00477348
0.000177181
0.496662
-0.0064281
6.91731e-05
0.487143
-0.00719334
-0.000431151
0.475936
-0.0062382
-0.00187669
0.464941
-0.00237812
-0.00531346
0.00547614
-0.0122912
0.458915
0.512301
0.00326182
1.22282e-05
0.507939
0.00162939
4.41738e-05
0.502586
0.000590903
-1.06215e-05
0.496031
0.000342392
-0.000215495
0.488309
0.00126558
-0.000737137
0.48004
0.00392663
-0.00189603
0.472905
0.00894646
-0.00418989
0.0165761
-0.00813344
0.469939
0.510673
0.00630726
2.19577e-05
0.50693
0.00536369
8.96892e-06
0.502399
0.00519337
-7.16085e-05
0.497053
0.00595102
-0.000262138
0.491093
0.00788535
-0.000660497
0.485158
0.0112934
-0.00143142
0.480509
0.0163834
-0.00278742
0.0229827
-0.00486478
0.478967
0.509732
0.00862132
2.56332e-05
0.506782
0.00831909
-5.15707e-06
0.503199
0.00885487
-7.85504e-05
0.499043
0.0103243
-0.000217622
0.494554
0.0128482
-0.000474163
0.490261
0.0165128
-0.000925998
0.487034
0.0212673
-0.00165668
0.0267571
-0.00268703
0.485946
0.509413
0.0101637
1.23942e-05
0.507325
0.0104265
-1.93011e-05
0.50469
0.0115598
-6.94523e-05
0.501589
0.0135756
-0.000150502
0.498226
0.0164965
-0.00028551
0.494986
0.0202606
-0.000508147
0.492441
0.0246631
-0.000850138
0.0292734
-0.00130921
0.491233
0.509693
3.69502e-05
0.508465
-2.56512e-05
0.506718
-5.33709e-05
0.50451
-7.41213e-05
0.501971
-0.000105231
0.49934
-0.000156322
0.496971
-0.000241624
-0.000365687
0.495268
0.0653215
-0.00932373
0.000298721
0.061391
-0.0134431
0.0011762
0.0562647
-0.0187841
0.0023958
0.0484801
-0.0257013
0.00428977
0.0356401
-0.0343496
0.00696106
0.0140754
-0.0442133
0.00951276
-0.0203183
-0.0529342
0.00742375
-0.0533756
-0.0212694
-0.059043
0.0611099
-0.00498339
0.000174945
0.0559485
-0.00859606
0.000637385
0.0492529
-0.0126034
0.0011043
0.0398139
-0.016984
0.00154157
0.0260529
-0.0213023
0.001475
0.00644552
-0.0242983
-0.000668033
-0.0186018
-0.0232369
-0.00906939
-0.0131793
-0.0345894
-0.0395791
0.057454
-0.000427409
0.000125421
0.0519327
-0.0032484
0.000308576
0.0449393
-0.00579194
0.000359113
0.0357251
-0.00784458
0.00014388
0.0236047
-0.00880479
-0.000808329
0.00853601
-0.00748284
-0.00362339
-0.00747054
-0.00196114
-0.0105827
0.0100671
-0.0256433
-0.0173648
0.0546252
0.0038025
0.000121943
0.0494277
0.00184629
0.000147
0.0430028
0.000599628
2.27141e-05
0.0350041
0.000309476
-0.000370847
0.0253299
0.00148842
-0.0013562
0.0145706
0.00495454
-0.00357409
0.00476813
0.0117277
-0.00807618
0.0225041
-0.0161156
0.000313304
0.0526778
0.00735518
0.000126339
0.0482284
0.00622947
7.51734e-05
0.0428142
0.00603404
-9.1854e-05
0.03635
0.00696551
-0.000453998
0.029015
0.00936054
-0.0011976
0.0215254
0.0136572
-0.0026445
0.0154579
0.0202368
-0.00522917
0.0290275
-0.00927895
0.0133486
0.0515625
0.0100447
0.000112009
0.0480695
0.00968596
3.1353e-05
0.0438123
0.0103323
-0.000119601
0.038836
0.0121088
-0.000384657
0.0334003
0.015182
-0.000859938
0.0281251
0.0196999
-0.00169359
0.0240954
0.0256609
-0.00305093
0.0326789
-0.00498768
0.0227447
0.0512013
0.011797
7.09422e-05
0.048735
0.0121496
-1.66308e-05
0.0456221
0.0135043
-0.00012862
0.0419432
0.0159259
-0.000288582
0.0379294
0.0194507
-0.000540449
0.034036
0.0240319
-0.000946682
0.0309635
0.0294511
-0.00156772
0.035199
-0.00240299
0.0295372
0.0515356
3.38709e-05
0.0500991
-6.44308e-05
0.0480559
-0.00013131
0.0454662
-0.00018814
0.0424795
-0.000253409
0.0393767
-0.000347984
0.0365773
-0.000497204
-0.00070933
0.0345785
0.0262532
-0.00953924
0.00047478
0.0226293
-0.0141169
0.00127264
0.0181202
-0.0202702
0.00251343
0.0109434
-0.0287311
0.00466653
-0.00261539
-0.0402598
0.00809946
-0.0308954
-0.0551004
0.0124587
-0.0922539
-0.0710472
0.0136448
-0.070183
-0.198129
-0.0309866
0.0215514
-0.00508611
0.000407501
0.0163249
-0.00902206
0.000769045
0.0094903
-0.0135051
0.00117386
-0.000668463
-0.0186295
0.00159872
-0.0169694
-0.023994
0.00151006
-0.0437309
-0.0279812
-0.0010257
-0.0857627
-0.0261747
-0.0119101
-0.00685916
-0.132073
-0.0516033
0.0175609
-0.000440363
0.000391681
0.0118311
-0.0034558
0.000472171
0.00446272
-0.00621611
0.000438455
-0.00566327
-0.00850126
0.000141625
-0.0199251
-0.00956971
-0.000970809
-0.0394808
-0.0077524
-0.00429649
-0.0634118
0.000128323
-0.0129547
0.0193183
-0.0816918
-0.0335408
0.0145372
0.00384013
0.000392979
0.00912244
0.00178206
0.000323919
0.00233767
0.000470472
0.000120869
-0.00637823
0.000193011
-0.000349252
-0.0174479
0.00160277
-0.00145906
-0.0306426
0.00585284
-0.00398457
-0.0439174
0.0146286
-0.00930173
0.0296726
-0.0510313
-0.019356
0.0124912
0.00741134
0.000370653
0.00787125
0.00624062
0.000236575
0.00219249
0.00605472
2.6323e-06
-0.00473987
0.00708792
-0.000416555
-0.0128765
0.00977308
-0.00123124
-0.0215832
0.0147358
-0.00282086
-0.0291043
0.0226547
-0.00573416
0.0337718
-0.0320074
-0.010475
0.0113359
0.0101035
0.000300417
0.00773129
0.00973019
0.000146334
0.00330911
0.0104202
-6.29087e-05
-0.00193695
0.0123208
-0.000371417
-0.00779363
0.0156539
-0.000884053
-0.0136417
0.0206612
-0.00177081
-0.0182605
0.0274573
-0.00323475
0.0357229
-0.0198252
-0.00537418
0.010972
0.0118566
0.000180269
0.00844742
0.012212
2.61113e-05
0.00524989
0.0136317
-0.000142589
0.00143831
0.0161864
-0.000342604
-0.00277193
0.0199424
-0.0006187
-0.00691543
0.0248983
-0.00104036
-0.0102201
0.0308741
-0.00167978
0.0373494
-0.0117026
-0.00254714
0.0113276
3.54039e-05
0.00987829
-0.000116242
0.0078154
-0.00024196
0.00519093
-0.000343587
0.00214533
-0.000432807
-0.00104111
-0.000531486
-0.00392671
-0.000667384
-0.00596399
-0.000852182
0.444068
-0.0317106
-0.0446919
0.461167
-0.0228361
-0.0639886
0.482141
-0.0140639
-0.0686463
-0.00511434
-0.0622275
0.503164
0.453192
-0.00097057
-0.0367724
0.470078
0.0101159
-0.0498386
0.490877
0.0180165
-0.0528789
0.0222893
-0.0470853
0.510558
0.464327
0.0167175
-0.0230993
0.477983
0.0267466
-0.0302875
0.494955
0.0330832
-0.0320386
0.0350445
-0.0286551
0.510855
0.474228
0.0258093
-0.0133813
0.484261
0.0337496
-0.0170358
0.496858
0.0384448
-0.0179587
0.0392612
-0.0161809
0.508823
0.482008
0.0301253
-0.00735704
0.488886
0.0359948
-0.00912363
0.497676
0.0392305
-0.00957566
0.0393564
-0.0086871
0.506268
0.487741
0.032167
-0.00383639
0.492064
0.0363239
-0.00465178
0.497822
0.0383296
-0.00485698
0.0378807
-0.00442699
0.503724
0.491798
0.0334023
-0.00179973
0.494031
0.0362382
-0.00214696
0.497399
0.0371937
-0.00223276
0.0361236
-0.00204146
0.501198
0.494564
-0.00050656
0.494967
-0.000614887
0.496364
-0.000652983
-0.000610922
0.498485
-0.0426882
-0.0325244
-0.132243
-0.010175
-0.0172806
-0.18232
0.0243428
-0.00539999
-0.190039
0.00550475
-0.165821
0.0558368
-0.0264433
0.00997844
-0.092411
0.00211681
0.0281166