/*--------------------------------*- C++ -*----------------------------------*\
  =========                 |
  \\      /  F ield         | OpenFOAM: The Open Source CFD Toolbox
   \\    /   O peration     | Website:  https://openfoam.org
    \\  /    A nd           | Version:  7
     \\/     M anipulation  |
\*---------------------------------------------------------------------------*/
FoamFile
{
    version     2.0;
    format      ascii;
    class       volVectorField;
    location    "0.25";
    object      U;
}
// * * * * * * * * * * * * * * * * * * * * * * * * * * * * * * * * * * * * * //

dimensions      [0 1 -1 0 0 0 0];

internalField   nonuniform List<vector> 
7936
(
(0.0816825 0.00173221 1.68584e-05)
(0.0816624 0.00191027 9.46263e-06)
(0.0815603 0.00222131 1.38601e-06)
(0.0813663 0.00266175 3.91555e-06)
(0.081095 0.00321918 1.01479e-05)
(0.0807519 0.00386449 1.93781e-05)
(0.0803587 0.00454394 3.05711e-05)
(0.0799512 0.00517535 4.16937e-05)
(0.0818379 0.00164479 9.56441e-06)
(0.0819543 0.00191326 3.95154e-06)
(0.0819724 0.00230272 7.13508e-06)
(0.0819004 0.00282148 1.83723e-05)
(0.0817237 0.00344976 3.7226e-05)
(0.0814285 0.0041525 6.45282e-05)
(0.0810098 0.00486587 9.91403e-05)
(0.0804801 0.00549429 0.000136563)
(0.0820804 0.00143044 1.61954e-06)
(0.0823204 0.00177137 6.64325e-06)
(0.0824685 0.0022411 1.94936e-05)
(0.0825133 0.0028358 4.34182e-05)
(0.0824261 0.0035414 8.2106e-05)
(0.082168 0.00432201 0.00013833)
(0.0817005 0.00510546 0.000211276)
(0.0810066 0.00577748 0.000292635)
(0.0824057 0.00108221 4.29071e-06)
(0.082765 0.00149559 1.65172e-05)
(0.0830369 0.00202533 4.10958e-05)
(0.0832008 0.00267827 8.47889e-05)
(0.0832099 0.00344959 0.000155518)
(0.0829925 0.00430707 0.000260445)
(0.0824653 0.00517289 0.000400811)
(0.0815678 0.00591004 0.00056299)
(0.0828024 0.00062172 1.04018e-05)
(0.0832635 0.0010802 3.24021e-05)
(0.0836512 0.0016348 7.41211e-05)
(0.0839376 0.00230465 0.000147638)
(0.0840549 0.00309634 0.000268681)
(0.0838913 0.00398571 0.00045364)
(0.0833034 0.00489217 0.000710446)
(0.0821656 0.00565479 0.00101961)
(0.0832469 6.80259e-05 1.87185e-05)
(0.083778 0.000530694 5.39917e-05)
(0.0842613 0.00105341 0.000118913)
(0.0846623 0.00166531 0.000234194)
(0.0848909 0.00238254 0.000428738)
(0.0847884 0.00318691 0.000736391)
(0.0841344 0.0039924 0.00118127)
(0.0827159 0.00460957 0.0017405)
(0.083698 -0.000535006 2.75861e-05)
(0.0842489 -0.000126222 7.89994e-05)
(0.0847858 0.000285777 0.000171928)
(0.0852667 0.000731929 0.000339159)
(0.0855764 0.00122626 0.000628974)
(0.0855012 0.00174047 0.0011032)
(0.084726 0.00215875 0.0018162)
(0.0829394 0.00222053 0.00274747)
(0.084097 -0.00112245 3.46703e-05)
(0.0845988 -0.000835853 0.000102773)
(0.0851195 -0.000621392 0.000223884)
(0.0856028 -0.000459938 0.000444391)
(0.0858995 -0.000357876 0.000834598)
(0.0857207 -0.000379621 0.00148796)
(0.0846138 -0.000717575 0.00248936)
(0.082152 -0.00182072 0.00375767)
(0.00840041 0.00202277 9.72807e-06)
(0.0083896 0.00223464 9.74112e-07)
(0.00826471 0.0026059 -6.16659e-06)
(0.00804546 0.00313406 1.89457e-06)
(0.00773296 0.00380683 1.90419e-05)
(0.00733592 0.00459206 4.48913e-05)
(0.00687784 0.00542704 7.69528e-05)
(0.00639872 0.00621167 0.000109783)
(0.00858531 0.00193306 5.29115e-07)
(0.00872673 0.00224223 -4.12553e-06)
(0.00876088 0.00271166 8.21761e-06)
(0.00868972 0.00333737 3.91008e-05)
(0.00849751 0.00410304 9.13145e-05)
(0.00816727 0.00497035 0.000168021)
(0.0076875 0.00586462 0.000266775)
(0.00706529 0.00666785 0.00037533)
(0.00887458 0.00167706 -6.8809e-06)
(0.00916822 0.00208789 6.20258e-06)
(0.00935986 0.00265512 4.08135e-05)
(0.00943685 0.00338082 0.000106496)
(0.00936596 0.00425606 0.000214538)
(0.00909751 0.00524458 0.000374064)
(0.00857535 0.00626418 0.000584352)
(0.00776209 0.0071722 0.000823095)
(0.00926453 0.00127728 1.07847e-06)
(0.00970481 0.00177606 3.27394e-05)
(0.0100538 0.00242243 9.94185e-05)
(0.0102907 0.00323371 0.000220725)
(0.0103613 0.004216 0.000420739)
(0.0101754 0.00534491 0.000722675)
(0.00961512 0.00653795 0.00113445)
(0.0085711 0.00762391 0.00162161)
(0.00974335 0.000742546 1.75548e-05)
(0.0103134 0.00130069 7.61794e-05)
(0.0108175 0.00198809 0.000190925)
(0.0112304 0.00284114 0.00039771)
(0.0114772 0.00388828 0.000744921)
(0.0114195 0.00512753 0.00128669)
(0.0108543 0.00648718 0.00205849)
(0.00955535 0.00777005 0.00302008)
(0.0102842 9.72873e-05 4.06896e-05)
(0.0109504 0.000666741 0.000136396)
(0.0115943 0.00132777 0.0003173)
(0.0121908 0.002135 0.000645893)
(0.0126477 0.00313948 0.00121315)
(0.0127743 0.00436475 0.00213478)
(0.0122576 0.00575598 0.00351614)
(0.0106959 0.00709145 0.00534447)
(0.0108387 -0.00060898 6.6239e-05)
(0.0115439 -9.91732e-05 0.000207582)
(0.0122858 0.000437382 0.0004696)
(0.0130421 0.00106228 0.00095306)
(0.0137069 0.00183282 0.00181486)
(0.0140359 0.00277471 0.0032774)
(0.0135805 0.00381296 0.00559166)
(0.0116922 0.00458841 0.00887208)
(0.011335 -0.00130112 8.78944e-05)
(0.0119967 -0.000937221 0.000276944)
(0.0127557 -0.000639008 0.000622199)
(0.0135863 -0.000360388 0.00126961)
(0.01436 -7.25513e-05 0.00245771)
(0.0147538 0.000192691 0.00455)
(0.0140671 0.000197017 0.00801103)
(0.0112077 -0.00100735 0.0131181)
(0.00197049 0.00203313 -6.51477e-06)
(0.00195886 0.0022534 -2.52535e-05)
(0.00184552 0.00264157 -3.17997e-05)
(0.0016358 0.00319843 -2.55162e-05)
(0.00133159 0.00391583 -6.03697e-06)
(0.000940843 0.00476526 2.72796e-05)
(0.000483617 0.00568414 7.16724e-05)
(-3.19687e-06 0.00656439 0.000120163)
(0.00216255 0.00194181 -2.83961e-05)
(0.00231556 0.00226917 -3.50566e-05)
(0.00236999 0.00276529 -2.37878e-05)
(0.00232249 0.00343299 1.05503e-05)
(0.00215817 0.00426394 7.52503e-05)
(0.00185547 0.00522548 0.000175777)
(0.00139282 0.00624379 0.00031035)
(0.000762728 0.00718924 0.000463515)
(0.00246462 0.00169643 -3.74537e-05)
(0.00278236 0.00213093 -2.85714e-05)
(0.00300934 0.00273648 8.28422e-06)
(0.00313445 0.00352669 8.75656e-05)
(0.00312409 0.00450547 0.000226418)
(0.0029207 0.00564996 0.000440048)
(0.00244738 0.00688512 0.000731347)
(0.0016305 0.00805393 0.00107346)
(0.00287531 0.00130436 -3.2877e-05)
(0.00335562 0.00183626 -1.56984e-06)
(0.00376575 0.00253972 7.65471e-05)
(0.00409149 0.00344958 0.000229808)
(0.00428145 0.00459696 0.000494729)
(0.00423512 0.00598853 0.000909838)
(0.0037968 0.00756833 0.00149709)
(0.00277606 0.0091569 0.00222188)
(0.00338546 0.000774305 -1.51786e-05)
(0.00401772 0.00137841 5.03928e-05)
(0.00462266 0.00214567 0.000191924)
(0.0051917 0.00314158 0.000461998)
(0.00566304 0.00444059 0.000935155)
(0.00589206 0.00610624 0.00170359)
(0.00561573 0.00814048 0.0028499)
(0.00443757 0.0103755 0.00436691)
(0.00397011 0.000129429 1.43259e-05)
(0.00472698 0.000757117 0.000128106)
(0.00552892 0.00151975 0.000359121)
(0.00638641 0.0025164 0.000800481)
(0.0072461 0.00387423 0.00159689)
(0.00793497 0.00573944 0.00295558)
(0.00806587 0.00822573 0.00512545)
(0.00691615 0.0112675 0.00826596)
(0.00458005 -0.000583561 5.04229e-05)
(0.00540805 -8.94766e-06 0.000224789)
(0.00638194 0.000640047 0.000568351)
(0.00754617 0.00148312 0.00123522)
(0.00888605 0.00268389 0.00248715)
(0.0102432 0.00445629 0.00475472)
(0.0111418 0.0070257 0.00868015)
(0.0104685 0.0104037 0.0151458)
(0.00513687 -0.00129012 8.48184e-05)
(0.00595059 -0.000867539 0.000323758)
(0.00702099 -0.00047046 0.000786364)
(0.00843023 6.01732e-06 0.00170365)
(0.010219 0.000701141 0.00350084)
(0.0122746 0.00178359 0.00696108)
(0.0139965 0.00337057 0.0135855)
(0.0132065 0.00418589 0.0260554)
(0.0795781 0.00565553 5.0055e-05)
(0.0792945 0.00588564 5.31143e-05)
(0.07915 0.00580981 4.96842e-05)
(0.0791759 0.00543956 4.06285e-05)
(0.0798834 0.00592133 0.000168181)
(0.0793033 0.00604144 0.000183383)
(0.0788494 0.0058063 0.000175987)
(0.0786235 0.00525161 0.000147343)
(0.0801253 0.00619311 0.000363424)
(0.0791795 0.00621901 0.000397691)
(0.0783602 0.00580238 0.000380359)
(0.0778638 0.00500544 0.000313614)
(0.080325 0.00633185 0.00070867)
(0.0789126 0.00625975 0.000778961)
(0.0776358 0.00562813 0.000741177)
(0.0768278 0.00452631 0.00059777)
(0.080475 0.00604031 0.00130798)
(0.0784758 0.00582901 0.00144653)
(0.0766267 0.00494758 0.00136985)
(0.0754536 0.00350359 0.00107634)
(0.0804991 0.0047665 0.00228291)
(0.0778198 0.00429362 0.00253966)
(0.0753104 0.00315021 0.00239463)
(0.073735 0.00143098 0.00182617)
(0.0801586 0.00159713 0.00366224)
(0.0768593 0.000570591 0.00408152)
(0.0737642 -0.000778361 0.00382948)
(0.0718428 -0.00243199 0.00282022)
(0.0788461 -0.00412497 0.00476443)
(0.0754435 -0.00611643 0.00519048)
(0.0723086 -0.00748435 0.00479935)
(0.0704109 -0.00835225 0.00333526)
(0.00595481 0.00681517 0.000135709)
(0.00561177 0.00710781 0.000147092)
(0.00543099 0.00701526 0.000140099)
(0.00545309 0.0065515 0.000116807)
(0.00634611 0.00722799 0.000468949)
(0.00562993 0.00739876 0.000516024)
(0.00505661 0.00711023 0.000498031)
(0.00476048 0.00640544 0.000418314)
(0.00668573 0.00776999 0.00103522)
(0.00549402 0.00785422 0.00114121)
(0.00443767 0.00733725 0.00109542)
(0.00378283 0.00629306 0.000903204)
(0.00702813 0.00833123 0.00207192)
(0.0051972 0.00834947 0.00229568)
(0.00349546 0.00755254 0.00219193)
(0.0023908 0.00604145 0.00176541)
(0.00741126 0.00861216 0.00395692)
(0.00471532 0.00854884 0.00442073)
(0.00212967 0.00741249 0.00420551)
(0.000423254 0.00530574 0.00329867)
(0.00780656 0.00789494 0.00725057)
(0.00399742 0.0076195 0.00817911)
(0.000252482 0.00610959 0.00776739)
(-0.00227477 0.00339396 0.00592377)
(0.00793589 0.00434326 0.0126142)
(0.00292907 0.00331546 0.0143415)
(-0.00209494 0.00149583 0.0136297)
(-0.00567769 -0.0013249 0.0101254)
(0.00650283 -0.00512385 0.018323)
(0.00114889 -0.00817159 0.0206566)
(-0.00436725 -0.0100358 0.0196135)
(-0.00873282 -0.0113118 0.0141675)
(-0.000464457 0.00725477 0.000162024)
(-0.000831616 0.00759611 0.000185742)
(-0.00103646 0.0074957 0.000184871)
(-0.00102998 0.00696845 0.000161113)
(-2.06719e-06 0.00787748 0.000600968)
(-0.000796911 0.00811277 0.000676056)
(-0.00145784 0.00779679 0.000661118)
(-0.00181925 0.00697499 0.000559334)
(0.000459072 0.00889845 0.00138914)
(-0.000912309 0.00910429 0.00155582)
(-0.00217422 0.00852741 0.00150467)
(-0.00298489 0.00724286 0.00124073)
(0.00104828 0.0103755 0.00292578)
(-0.00116795 0.0106461 0.0032916)
(-0.00331927 0.00973218 0.00316329)
(-0.00477217 0.0077217 0.00254156)
(0.00194815 0.0122815 0.00595554)
(-0.00155566 0.012734 0.00677408)
(-0.0050986 0.0113871 0.0064947)
(-0.0075836 0.00827287 0.00508034)
(0.00340493 0.014266 0.011961)
(-0.00206279 0.014971 0.0138025)
(-0.00777987 0.0131269 0.0132569)
(-0.0120744 0.00850794 0.0101153)
(0.00562025 0.0135231 0.0243086)
(-0.0026967 0.013841 0.0284539)
(-0.0115402 0.0116245 0.0275353)
(-0.0191863 0.00596537 0.0207921)
(0.00641506 -0.00314366 0.0453203)
(-0.00395525 -0.00714672 0.0530232)
(-0.015205 -0.00924388 0.0519334)
(-0.0276285 -0.0116299 0.0396299)
(0.0793725 0.00485249 2.90324e-05)
(0.0797035 0.00416275 1.88924e-05)
(0.0801085 0.00347517 1.19906e-05)
(0.0805258 0.00286277 7.9921e-06)
(0.0809082 0.00236627 5.78437e-06)
(0.0812265 0.00200305 4.36466e-06)
(0.0814608 0.00177727 3.79099e-06)
(0.0816165 0.00168765 1.1362e-05)
(0.0786783 0.00449423 0.000107115)
(0.0789859 0.00369001 6.94475e-05)
(0.0794566 0.00295853 4.13734e-05)
(0.0799909 0.00236333 2.3149e-05)
(0.080512 0.00192582 1.22077e-05)
(0.0809734 0.00164443 5.83727e-06)
(0.081351 0.0015092 2.20958e-06)
(0.0816342 0.00151538 2.62212e-06)
(0.0778109 0.00400663 0.000219953)
(0.0781678 0.00304066 0.00013576)
(0.0787818 0.00225025 7.58842e-05)
(0.0794931 0.00167974 3.88233e-05)
(0.0801893 0.00131828 1.78358e-05)
(0.0808099 0.00113596 6.60608e-06)
(0.0813318 0.00110372 1.03649e-06)
(0.0817521 0.00120364 -6.3702e-07)
(0.0767135 0.00321797 0.0003965)
(0.0772295 0.00207371 0.000227823)
(0.0780957 0.00125444 0.000117158)
(0.079059 0.000758319 5.40748e-05)
(0.0799682 0.000521277 2.14941e-05)
(0.0807588 0.000474748 6.0381e-06)
(0.0814187 0.000568195 -2.27976e-07)
(0.0819609 0.000773519 -6.85263e-07)
(0.0753583 0.00185471 0.000658109)
(0.0762043 0.000594228 0.000340739)
(0.0774664 -0.000139319 0.000154546)
(0.07876 -0.00044669 6.00407e-05)
(0.0799058 -0.000471149 1.74808e-05)
(0.0808569 -0.000325549 9.1039e-07)
(0.0816305 -7.84743e-05 -3.24352e-06)
(0.0822662 0.000238985 -1.43056e-07)
(0.0738042 -0.000461214 0.00098335)
(0.0752355 -0.00160639 0.000429167)
(0.0770548 -0.00200385 0.000151948)
(0.0787271 -0.00192892 3.44246e-05)
(0.0800894 -0.00161762 -6.27192e-06)
(0.0811515 -0.0012147 -1.48056e-05)
(0.0819833 -0.000790052 -1.09112e-05)
(0.0826611 -0.000364833 -3.96514e-07)
(0.0723216 -0.00410611 0.00120841)
(0.0746619 -0.00459899 0.000355373)
(0.077144 -0.00425147 2.85234e-05)
(0.0791462 -0.0035525 -6.33883e-05)
(0.08062 -0.00278786 -6.82931e-05)
(0.0816844 -0.00208589 -4.90878e-05)
(0.0824804 -0.0014844 -2.66938e-05)
(0.0831242 -0.000976349 -3.32759e-06)
(0.0716419 -0.00877974 0.000747297)
(0.0750915 -0.00786248 -0.000193905)
(0.0781016 -0.00639916 -0.000350327)
(0.0801908 -0.00495409 -0.000284178)
(0.081556 -0.00373178 -0.000185764)
(0.082455 -0.00277156 -0.00010722)
(0.0830928 -0.00204718 -5.23275e-05)
(0.0836105 -0.00151287 -1.02353e-05)
(0.00568151 0.00581779 8.57149e-05)
(0.00607259 0.00496379 5.81541e-05)
(0.00655143 0.00412149 3.91284e-05)
(0.0070432 0.00337842 2.75741e-05)
(0.00749176 0.00278063 2.02585e-05)
(0.00786332 0.00234583 1.42775e-05)
(0.00813941 0.00207663 8.44056e-06)
(0.00831216 0.00196993 1.03374e-05)
(0.00481535 0.00543996 0.000304486)
(0.00518621 0.00442751 0.000197984)
(0.00575485 0.0035206 0.000118737)
(0.00639558 0.00279253 6.70884e-05)
(0.0070155 0.0022629 3.54773e-05)
(0.00756062 0.00192491 1.5945e-05)
(0.00800629 0.00176362 2.98303e-06)
(0.00834406 0.0017681 -3.45344e-06)
(0.00370358 0.00496757 0.000630225)
(0.00415324 0.00370984 0.000386801)
(0.00491646 0.00270476 0.000215183)
(0.00578551 0.00199385 0.000109466)
(0.00662415 0.00155029 4.93822e-05)
(0.00736405 0.00132884 1.64333e-05)
(0.00798263 0.0012899 -1.35737e-06)
(0.00848165 0.0014087 -9.23522e-06)
(0.00223213 0.00419291 0.00115785)
(0.00292341 0.00262591 0.000657439)
(0.00403886 0.00154381 0.000334499)
(0.00524112 0.000907341 0.000152451)
(0.0063505 0.000609235 5.87977e-05)
(0.00730023 0.000550035 1.37785e-05)
(0.00808616 0.000661424 -5.8185e-06)
(0.00873125 0.000907304 -9.83569e-06)
(0.000288115 0.00274642 0.0019744)
(0.00150418 0.000893229 0.00100194)
(0.0031979 -0.00012849 0.000447176)
(0.00485093 -0.000541403 0.000170767)
(0.00626684 -0.000577768 4.75176e-05)
(0.00741625 -0.000400427 -9.7282e-07)
(0.0083399 -0.000101226 -1.47436e-05)
(0.00909751 0.000281049 -8.78634e-06)
(-0.00217972 4.36552e-06 0.00306084)
(4.87454e-05 -0.00186272 0.00129085)
(0.00260429 -0.00246619 0.000446287)
(0.00479186 -0.00237597 9.8611e-05)
(0.00649148 -0.00197474 -1.9588e-05)
(0.00777677 -0.00146831 -4.50112e-05)
(0.00876764 -0.000945656 -3.60576e-05)
(0.00957502 -0.000428609 -9.45804e-06)
(-0.00496271 -0.00502368 0.00398364)
(-0.000964551 -0.00598693 0.0010888)
(0.00268502 -0.00546297 7.81549e-05)
(0.00534244 -0.00446511 -0.00018889)
(0.00717451 -0.0034342 -0.000198162)
(0.00844533 -0.00252789 -0.000141709)
(0.0093796 -0.00177473 -7.95885e-05)
(0.0101405 -0.00114996 -1.68361e-05)
(-0.00679578 -0.0129011 0.00248057)
(-0.000378684 -0.0110645 -0.00077861)
(0.00412814 -0.00853854 -0.00112839)
(0.00682091 -0.00634108 -0.000861403)
(0.00842873 -0.00463409 -0.000543557)
(0.00943625 -0.0033676 -0.000307602)
(0.0101456 -0.00244763 -0.000150561)
(0.0107408 -0.00178393 -3.45375e-05)
(-0.000802683 0.00613706 0.000125255)
(-0.000400776 0.00518479 9.24697e-05)
(9.22147e-05 0.00426271 6.91853e-05)
(0.000595473 0.00346267 5.37314e-05)
(0.0010512 0.00282774 4.16628e-05)
(0.00142627 0.00237062 2.93479e-05)
(0.00170552 0.00208952 1.50465e-05)
(0.00188487 0.00197841 1.48406e-06)
(-0.00178162 0.00584187 0.000408412)
(-0.00138523 0.00467914 0.000267402)
(-0.00077629 0.00366479 0.000163071)
(-9.93753e-05 0.00286919 9.47066e-05)
(0.000546447 0.00230082 5.13541e-05)
(0.00110802 0.00194257 2.20311e-05)
(0.00156444 0.00177268 -4.80167e-07)
(0.0019131 0.00177507 -1.84498e-05)
(-0.00309853 0.00557448 0.000856982)
(-0.00257785 0.00404368 0.000519857)
(-0.00171774 0.00286902 0.000286394)
(-0.000768497 0.0020664 0.000144109)
(0.000124585 0.00157853 6.26328e-05)
(0.000898144 0.00133868 1.56968e-05)
(0.00153804 0.0012953 -1.31921e-05)
(0.00205402 0.00141818 -3.10623e-05)
(-0.00498076 0.00513323 0.00163244)
(-0.00409066 0.00305834 0.000906154)
(-0.00275356 0.00171059 0.000451617)
(-0.00138986 0.000955509 0.000200707)
(-0.000181276 0.000613252 7.22742e-05)
(0.000824792 0.000543362 8.40274e-06)
(0.00164395 0.000658347 -2.35886e-05)
(0.00231424 0.000915421 -3.72393e-05)
(-0.00776156 0.00408239 0.00292846)
(-0.00600036 0.00133157 0.00143378)
(-0.00382054 -5.32006e-05 0.000622524)
(-0.00186583 -0.00058061 0.000231155)
(-0.000287559 -0.000633629 5.89074e-05)
(0.000943241 -0.000442002 -1.12941e-05)
(0.0019101 -0.000121726 -3.68175e-05)
(0.00270004 0.000283619 -3.85246e-05)
(-0.0119185 0.00146182 0.00488317)
(-0.00822512 -0.00180745 0.00193648)
(-0.00466551 -0.00273101 0.000646977)
(-0.00197025 -0.00263319 0.000141826)
(-4.26628e-05 -0.00215221 -2.66092e-05)
(0.0013367 -0.00157221 -6.68456e-05)
(0.00236957 -0.000995621 -6.32729e-05)
(0.00321027 -0.000437472 -3.90797e-05)
(-0.0180397 -0.0053757 0.00710413)
(-0.0101834 -0.00747763 0.00170712)
(-0.00464458 -0.00658039 0.000119726)
(-0.00128678 -0.0051445 -0.000259323)
(0.000773446 -0.00380851 -0.000266947)
(0.00209983 -0.00272041 -0.000191903)
(0.00304484 -0.00186373 -0.000116622)
(0.00382509 -0.00117571 -4.54241e-05)
(-0.0242819 -0.0213892 0.00431683)
(-0.00935607 -0.0162848 -0.00183527)
(-0.002322 -0.0111033 -0.00186808)
(0.000802862 -0.00757673 -0.00127118)
(0.00238157 -0.00522227 -0.000754599)
(0.0032815 -0.00364318 -0.000413271)
(0.00391427 -0.00257044 -0.000205139)
(0.00449044 -0.00182659 -6.26924e-05)
(0.084375 -0.00161565 3.78596e-05)
(0.08475 -0.00151314 0.000119006)
(0.0851617 -0.00156416 0.000260525)
(0.0855302 -0.00177232 0.000519197)
(0.0856567 -0.00216991 0.000979941)
(0.0851409 -0.00284286 0.00174832)
(0.0832814 -0.00398767 0.00286231)
(0.0795169 -0.00601927 0.00384423)
(0.0844712 -0.00193873 3.61377e-05)
(0.0846503 -0.00205452 0.000122045)
(0.0848603 -0.00239289 0.000268245)
(0.084997 -0.00298433 0.00053458)
(0.0848287 -0.00388 0.00100891)
(0.0839011 -0.00514847 0.00179474)
(0.0814232 -0.00686622 0.00289915)
(0.0768648 -0.00908901 0.00364176)
(0.0843569 -0.00203668 2.9666e-05)
(0.0842958 -0.00236064 0.000109386)
(0.0842319 -0.00294586 0.000240213)
(0.084043 -0.00384778 0.000475126)
(0.0834923 -0.00513291 0.000889769)
(0.0821522 -0.00684964 0.00156952)
(0.079323 -0.00895639 0.00250104)
(0.0746719 -0.0111729 0.00298874)
(0.0840496 -0.00188823 1.99392e-05)
(0.0837411 -0.00236234 8.3318e-05)
(0.0833731 -0.00308955 0.000180159)
(0.0828099 -0.00413594 0.000345472)
(0.0818265 -0.00557055 0.000622587)
(0.080075 -0.00742674 0.00104685)
(0.0770815 -0.0096018 0.00155527)
(0.0728662 -0.0116166 0.00152453)
(0.0116854 -0.00188611 9.96286e-05)
(0.012206 -0.00174908 0.000326425)
(0.0128626 -0.00178425 0.000733776)
(0.0136085 -0.00198258 0.00150502)
(0.0142596 -0.00236434 0.00294406)
(0.0143017 -0.00301907 0.00551655)
(0.0123526 -0.00424329 0.00979686)
(0.00616619 -0.00700298 0.0145773)
(0.0118102 -0.00227317 9.81952e-05)
(0.0120986 -0.00241005 0.000339149)
(0.0125222 -0.00281619 0.000762685)
(0.0130061 -0.00353107 0.00156539)
(0.0133221 -0.00462356 0.00307295)
(0.0128604 -0.00619267 0.00578226)
(0.00993702 -0.0083662 0.0102683)
(0.00192162 -0.0113024 0.014771)
(0.0116705 -0.00239558 8.35314e-05)
(0.0116629 -0.00279625 0.000307201)
(0.0117416 -0.00352876 0.000687496)
(0.011801 -0.00468244 0.00140103)
(0.0115961 -0.00637891 0.00273822)
(0.0105403 -0.00874084 0.00514618)
(0.00705978 -0.0117762 0.00915626)
(-0.00121036 -0.0149731 0.0130229)
(0.0112876 -0.00222569 5.93538e-05)
(0.0109654 -0.00281661 0.000236381)
(0.010636 -0.00374122 0.000517481)
(0.0101557 -0.00511825 0.00102145)
(0.00926174 -0.00710657 0.00192709)
(0.00744329 -0.00987921 0.00348843)
(0.00350953 -0.0134773 0.00597424)
(-0.00401799 -0.0170811 0.00783052)
(0.0055391 -0.00189463 0.000108981)
(0.0062277 -0.0017225 0.000400069)
(0.00725549 -0.0017052 0.00095529)
(0.00871767 -0.0017965 0.00207611)
(0.0106624 -0.00194717 0.00434325)
(0.0128996 -0.00212095 0.0089568)
(0.0133119 -0.00237858 0.0187741)
(0.00195157 -0.00391426 0.0363946)
(0.00568907 -0.00230183 0.000117576)
(0.00614001 -0.00244171 0.00042902)
(0.00694697 -0.00286795 0.00101226)
(0.00818795 -0.00362329 0.00219811)
(0.00989032 -0.00478115 0.00463729)
(0.0117816 -0.00643604 0.00970394)
(0.0111505 -0.00864506 0.0207585)
(-0.00450056 -0.0108508 0.0404876)
(0.00553699 -0.00243998 0.000109178)
(0.00566158 -0.0028855 0.00039796)
(0.00607387 -0.00371733 0.000923752)
(0.006804 -0.00507835 0.0019895)
(0.0078435 -0.00719305 0.00419846)
(0.00894347 -0.0103557 0.0088694)
(0.0075765 -0.0147367 0.0193891)
(-0.00840659 -0.0185381 0.0388846)
(0.00510577 -0.00227589 8.73525e-05)
(0.00486266 -0.00294201 0.000312911)
(0.00475408 -0.00402195 0.000699035)
(0.00471168 -0.00573173 0.00145389)
(0.00460606 -0.00843852 0.00297582)
(0.00412939 -0.0127538 0.00615398)
(0.00133747 -0.0195483 0.0135686)
(-0.0132162 -0.0272363 0.0281831)
(0.0758466 -0.0091961 0.00295897)
(0.0734985 -0.0115553 0.00256509)
(0.071536 -0.0126042 0.0020405)
(0.0705734 -0.0125003 0.00083713)
(0.0732307 -0.0116178 0.00177978)
(0.0720235 -0.0133227 0.000904749)
(0.0713803 -0.0137167 0.000283469)
(0.0715064 -0.0128544 -0.000785976)
(0.0715212 -0.012859 0.000797559)
(0.0713844 -0.0137206 -0.000274245)
(0.0720194 -0.0133267 -0.000895521)
(0.073216 -0.0116224 -0.00176819)
(0.0705892 -0.0125176 -0.000823029)
(0.0715407 -0.0126207 -0.00202704)
(0.0734937 -0.0115717 -0.00255162)
(0.0758308 -0.00921339 -0.00294485)
(0.000531662 -0.012357 0.00887815)
(-0.00196713 -0.0161837 0.00766667)
(-0.0050172 -0.0176222 0.00641684)
(-0.00778093 -0.0172905 0.00273904)
(-0.0038723 -0.0144082 0.00501921)
(-0.00422328 -0.0168918 0.00230048)
(-0.00515399 -0.0174402 0.000824841)
(-0.00637425 -0.0162662 -0.00240641)
(-0.00636118 -0.0162691 0.00244161)
(-0.00515147 -0.0174407 -0.000800758)
(-0.00422581 -0.0168923 -0.00227639)
(-0.00388536 -0.0144111 -0.00498399)
(-0.0077623 -0.0173061 -0.00269256)
(-0.00501233 -0.0176321 -0.00637512)
(-0.00197201 -0.0161935 -0.00762493)
(0.00051304 -0.0123726 -0.00883165)
(-0.0083851 -0.00454628 0.00942504)
(-0.00835336 -0.00969402 0.0076081)
(-0.0124451 -0.0111473 0.0066607)
(-0.0200702 -0.010732 0.00233582)
(-0.0153023 -0.00198132 0.00524714)
(-0.0111871 -0.0042801 0.00165866)
(-0.0122644 -0.00486496 0.0005738)
(-0.0182032 -0.00432856 -0.0033382)
(-0.0182155 -0.00432453 0.00337194)
(-0.0122692 -0.00485517 -0.000557392)
(-0.0111823 -0.00427031 -0.00164224)
(-0.01529 -0.00197729 -0.00521338)
(-0.0200648 -0.0107209 -0.0022829)
(-0.0124439 -0.0111167 -0.00661599)
(-0.0083545 -0.00966339 -0.00756339)
(-0.00839046 -0.00453524 -0.00937211)
(0.0728361 -0.0115997 -0.00151151)
(0.0770487 -0.00959199 -0.00155589)
(0.0800534 -0.00742124 -0.00104946)
(0.0818137 -0.00556723 -0.000624564)
(0.0828025 -0.00413383 -0.000346737)
(0.083369 -0.00308813 -0.000180921)
(0.0837391 -0.0023613 -8.37684e-05)
(0.084049 -0.00188734 -2.02699e-05)
(0.0746402 -0.0111679 -0.00297546)
(0.0792869 -0.00895347 -0.00250302)
(0.0821287 -0.00684801 -0.00157318)
(0.0834785 -0.00513191 -0.000892304)
(0.0840351 -0.00384712 -0.000476668)
(0.0842275 -0.00294539 -0.000241109)
(0.0842936 -0.00236028 -0.000109908)
(0.0843562 -0.00203639 -3.00415e-05)
(0.0768331 -0.00909399 -0.00362847)
(0.0813871 -0.0068691 -0.00290112)
(0.0838776 -0.00515008 -0.0017984)
(0.084815 -0.00388098 -0.00101144)
(0.0849891 -0.00298497 -0.000536123)
(0.0848559 -0.00239333 -0.000269137)
(0.0846481 -0.00205487 -0.000122576)
(0.0844705 -0.00193903 -3.65156e-05)
(0.0794868 -0.00603619 -0.00383118)
(0.0832486 -0.00399746 -0.00286289)
(0.0851193 -0.00284835 -0.0017509)
(0.0856439 -0.00217321 -0.00098191)
(0.0855228 -0.00177442 -0.000520461)
(0.0851576 -0.00156557 -0.000261283)
(0.0847479 -0.00151419 -0.000119479)
(0.0843744 -0.00161653 -3.81918e-05)
(-0.00406185 -0.0170583 -0.00777434)
(0.00345691 -0.013469 -0.00598541)
(0.00741665 -0.00987521 -0.0035004)
(0.00924787 -0.00710383 -0.00193404)
(0.0101481 -0.00511616 -0.00102546)
(0.0106318 -0.00373955 -0.000519753)
(0.0109633 -0.00281518 -0.000237708)
(0.011287 -0.00222435 -6.02803e-05)
(-0.00125409 -0.014967 -0.0129638)
(0.00700222 -0.0117741 -0.00917405)
(0.0105123 -0.00873993 -0.00516241)
(0.0115819 -0.00637823 -0.00274718)
(0.0117932 -0.00468184 -0.00140596)
(0.0117372 -0.00352826 -0.000690181)
(0.0116608 -0.00279579 -0.000308723)
(0.0116698 -0.00239513 -8.45754e-05)
(0.0018779 -0.0113085 -0.0147119)
(0.00987945 -0.0083683 -0.0102861)
(0.0128324 -0.0061936 -0.00579849)
(0.013308 -0.00462423 -0.0030819)
(0.0129983 -0.00353163 -0.00157032)
(0.0125179 -0.0028167 -0.000765373)
(0.0120964 -0.0024105 -0.000340677)
(0.0118096 -0.0022736 -9.92331e-05)
(0.00612233 -0.00702568 -0.0145211)
(0.0122999 -0.00425156 -0.00980799)
(0.0142751 -0.00302307 -0.0055285)
(0.0142457 -0.00236708 -0.002951)
(0.0136009 -0.00198466 -0.00150904)
(0.0128584 -0.00178593 -0.000736057)
(0.0122039 -0.00175052 -0.000327759)
(0.0116848 -0.00188743 -0.00010055)
(-0.0132228 -0.0271994 -0.0280107)
(0.00124388 -0.0195576 -0.0136246)
(0.00410946 -0.0127593 -0.00618542)
(0.00459877 -0.00843947 -0.00298864)
(0.00470741 -0.00573118 -0.0014601)
(0.0047517 -0.00402092 -0.000702204)
(0.00486143 -0.00294085 -0.000314595)
(0.00510542 -0.00227471 -8.84259e-05)
(-0.00840202 -0.0185295 -0.0386965)
(0.00747386 -0.0147398 -0.0194635)
(0.00892621 -0.0103579 -0.00891072)
(0.00783847 -0.0071938 -0.00421506)
(0.00680072 -0.00507839 -0.00199726)
(0.00607188 -0.00371709 -0.000927566)
(0.00566049 -0.00288515 -0.000399928)
(0.00553666 -0.00243959 -0.00011042)
(-0.00449599 -0.0108593 -0.0402994)
(0.0110478 -0.00864189 -0.020833)
(0.0117643 -0.00643377 -0.00974525)
(0.00988529 -0.00478041 -0.0046539)
(0.00818467 -0.00362324 -0.00220588)
(0.00694499 -0.0028682 -0.00101608)
(0.00613894 -0.00244205 -0.000430991)
(0.00568873 -0.0023022 -0.000118814)
(0.00194501 -0.00395113 -0.0362223)
(0.0132183 -0.00236927 -0.0188301)
(0.0128796 -0.00211547 -0.00898824)
(0.0106552 -0.00194622 -0.00435607)
(0.00871339 -0.00179704 -0.00208234)
(0.00725311 -0.00170624 -0.000958469)
(0.0062265 -0.00172366 -0.000401749)
(0.00553873 -0.0018958 -0.000110053)
(0.083611 -0.00151424 9.97423e-06)
(0.0830945 -0.00204885 5.19744e-05)
(0.0824583 -0.00277395 0.000106649)
(0.081562 -0.00373554 0.000184893)
(0.0802012 -0.0049603 0.000283014)
(0.0781185 -0.00640981 0.000349309)
(0.0751163 -0.00788142 0.00019528)
(0.0716664 -0.00881209 -0.000737098)
(0.0831246 -0.00097796 3.1462e-06)
(0.0824814 -0.0014864 2.64218e-05)
(0.0816864 -0.00208887 4.86412e-05)
(0.0806236 -0.00279267 6.75825e-05)
(0.0791521 -0.00356049 6.23214e-05)
(0.0771528 -0.00426492 -2.99817e-05)
(0.074673 -0.0046216 -0.000356967)
(0.0723306 -0.00414217 -0.0012097)
(0.0826613 -0.000366274 3.1702e-07)
(0.0819836 -0.000791862 1.07232e-05)
(0.081152 -0.00121756 1.44521e-05)
(0.0800904 -0.00162228 5.65998e-06)
(0.0787289 -0.00193641 -3.54419e-05)
(0.0770571 -0.00201562 -0.000153596)
(0.0752377 -0.00162422 -0.000431768)
(0.0738044 -0.000486283 -0.000987548)
(0.0822662 0.000238269 2.63848e-07)
(0.0816302 -7.95031e-05 3.18767e-06)
(0.080856 -0.000327623 -1.15756e-06)
(0.0799047 -0.000474802 -1.7972e-05)
(0.0787588 -0.000452455 -6.0899e-05)
(0.0774649 -0.000147781 -0.000155981)
(0.0762021 0.000582588 -0.00034307)
(0.075355 0.00184006 -0.000661828)
(0.0819609 0.000774564 1.28371e-06)
(0.0814177 0.000568515 4.12394e-07)
(0.0807567 0.000473809 -6.13982e-06)
(0.0799656 0.000518901 -2.18393e-05)
(0.0790559 0.000754461 -5.47216e-05)
(0.0780922 0.00124907 -0.000118247)
(0.0772255 0.00206693 -0.000229566)
(0.0767092 0.00321024 -0.000399163)
(0.0817516 0.00120586 2.13284e-06)
(0.0813294 0.0011058 -3.54074e-07)
(0.0808064 0.001136 -6.45859e-06)
(0.0801854 0.00131693 -1.79954e-05)
(0.0794889 0.0016774 -3.92495e-05)
(0.0787774 0.00224715 -7.66365e-05)
(0.0781632 0.00303706 -0.000136951)
(0.0778065 0.00400292 -0.000221707)
(0.0816375 0.00150892 2.90504e-06)
(0.0813478 0.00151036 -5.36128e-07)
(0.0809679 0.00164473 -5.17812e-06)
(0.080507 0.0019249 -1.20971e-05)
(0.0799861 0.00236196 -2.33709e-05)
(0.0794518 0.0029569 -4.18802e-05)
(0.0789812 0.0036883 -7.02562e-05)
(0.0786742 0.00449263 -0.000108262)
(0.0816153 0.00168822 1.11236e-05)
(0.0814652 0.00177328 1.72592e-06)
(0.0812209 0.00200285 -2.90299e-06)
(0.0809026 0.00236569 -5.2635e-06)
(0.0805209 0.00286216 -8.03014e-06)
(0.0801037 0.00347462 -1.23527e-05)
(0.079699 0.00416224 -1.95166e-05)
(0.0793685 0.00485206 -2.99175e-05)
(0.0107413 -0.00178613 3.37925e-05)
(0.0101474 -0.00245006 0.000149518)
(0.0094399 -0.00337066 0.000305922)
(0.00843546 -0.00463842 0.000540882)
(0.00683321 -0.00634781 0.000857569)
(0.00415076 -0.00855015 0.00112434)
(-0.000338724 -0.0110876 0.000781527)
(-0.00675332 -0.0129517 -0.00243916)
(0.0101408 -0.00115283 1.6271e-05)
(0.00938085 -0.00177794 7.87745e-05)
(0.00844763 -0.00253205 0.000140385)
(0.00717848 -0.00344027 0.00019601)
(0.00534902 -0.00447485 0.000185509)
(0.00269521 -0.00547975 -8.31404e-05)
(-0.000951145 -0.00601757 -0.00109519)
(-0.00495485 -0.0050799 -0.00399146)
(0.00957526 -0.0004318 9.09411e-06)
(0.0087682 -0.000949132 3.5432e-05)
(0.00777757 -0.00147271 4.39269e-05)
(0.00649263 -0.00198093 1.77382e-05)
(0.00479345 -0.00238524 -0.000101744)
(0.002606 -0.00248047 -0.000451558)
(4.91562e-05 -0.00188472 -0.00129966)
(-0.00218408 -2.7641e-05 -0.00307622)
(0.00909772 0.000277953 8.71124e-06)
(0.00833994 -0.000104439 1.43212e-05)
(0.00741584 -0.000404354 1.15761e-07)
(0.00626594 -0.000583016 -4.9031e-05)
(0.00484942 -0.00054865 -0.000173369)
(0.00319535 -0.000138459 -0.000451592)
(0.00149983 0.000879993 -0.00100934)
(0.000281267 0.00273044 -0.00198666)
(0.0087316 0.00090474 1.02408e-05)
(0.0080859 0.000658882 5.63302e-06)
(0.007299 0.000546945 -1.44154e-05)