/*--------------------------------*- C++ -*----------------------------------*\
  =========                 |
  \\      /  F ield         | OpenFOAM: The Open Source CFD Toolbox
   \\    /   O peration     | Website:  https://openfoam.org
    \\  /    A nd           | Version:  7
     \\/     M anipulation  |
\*---------------------------------------------------------------------------*/
FoamFile
{
    version     2.0;
    format      ascii;
    class       volVectorField;
    location    "0.5";
    object      U;
}
// * * * * * * * * * * * * * * * * * * * * * * * * * * * * * * * * * * * * * //

dimensions      [0 1 -1 0 0 0 0];

internalField   nonuniform List<vector> 
7784
(
(0.450055 -3.49365e-05 -0.000737822)
(0.449323 -3.01251e-05 -0.000626417)
(0.44915 -1.16314e-05 -0.000264149)
(0.44954 -3.85678e-06 -0.000125707)
(0.44974 -1.60891e-06 -6.96301e-05)
(0.449848 -8.00293e-07 -4.1744e-05)
(0.449914 -4.30265e-07 -2.5963e-05)
(0.45006 -4.89472e-05 -0.00071809)
(0.449345 -4.17771e-05 -0.000609248)
(0.449175 -1.85719e-05 -0.000259057)
(0.44955 -7.58107e-06 -0.000124675)
(0.449743 -3.63423e-06 -6.93475e-05)
(0.449849 -1.94112e-06 -4.16183e-05)
(0.449915 -1.09266e-06 -2.58984e-05)
(0.450063 -2.59066e-05 -0.000710933)
(0.449354 -2.17453e-05 -0.000603382)
(0.449185 -1.32572e-05 -0.000256522)
(0.449556 -7.43878e-06 -0.000123774)
(0.449746 -4.25732e-06 -6.89974e-05)
(0.449851 -2.50458e-06 -4.14681e-05)
(0.449916 -1.50256e-06 -2.58277e-05)
(0.450065 -1.47748e-05 -0.000708485)
(0.449358 -1.27068e-05 -0.000601394)
(0.44919 -9.1766e-06 -0.000255392)
(0.44956 -6.08682e-06 -0.000123224)
(0.449748 -3.92919e-06 -6.87382e-05)
(0.449852 -2.51883e-06 -4.13431e-05)
(0.449917 -1.60484e-06 -2.57654e-05)
(0.450065 -9.25352e-06 -0.000707471)
(0.44936 -8.17359e-06 -0.000600547)
(0.449192 -6.42719e-06 -0.00025483)
(0.449562 -4.69312e-06 -0.000122898)
(0.44975 -3.29109e-06 -6.85573e-05)
(0.449853 -2.2526e-06 -4.12438e-05)
(0.449917 -1.50787e-06 -2.57109e-05)
(0.450066 -6.02705e-06 -0.000707001)
(0.449361 -5.43935e-06 -0.000600142)
(0.449193 -4.50568e-06 -0.000254534)
(0.449563 -3.49911e-06 -0.000122703)
(0.449751 -2.59826e-06 -6.8436e-05)
(0.449854 -1.86615e-06 -4.11703e-05)
(0.449918 -1.29825e-06 -2.56669e-05)
(0.450066 -3.95961e-06 -0.000706765)
(0.449361 -3.6298e-06 -0.000599934)
(0.449194 -3.10735e-06 -0.000254372)
(0.449563 -2.51147e-06 -0.000122586)
(0.449751 -1.93949e-06 -6.83569e-05)
(0.449855 -1.44203e-06 -4.11186e-05)
(0.449918 -1.03222e-06 -2.56342e-05)
(0.0505463 -1.72048e-05 -0.00131121)
(0.0500987 -1.49245e-05 -0.00110845)
(0.0499381 -7.662e-06 -0.000556238)
(0.0500588 -3.33968e-06 -0.000304405)
(0.0501673 -1.57507e-06 -0.000182795)
(0.0502458 -8.09687e-07 -0.000115073)
(0.0503005 -4.4274e-07 -7.3681e-05)
(0.0505492 -2.71575e-05 -0.00128064)
(0.0501084 -2.33306e-05 -0.00108234)
(0.0499498 -1.32107e-05 -0.000547421)
(0.0500654 -6.61733e-06 -0.000302167)
(0.0501705 -3.47467e-06 -0.000182079)
(0.0502475 -1.92412e-06 -0.000114767)
(0.0503017 -1.10643e-06 -7.35324e-05)
(0.0505513 -1.89885e-05 -0.00126789)
(0.050114 -1.61506e-05 -0.0010719)
(0.0499564 -1.09295e-05 -0.000542428)
(0.0500701 -6.71343e-06 -0.000300141)
(0.0501732 -4.05901e-06 -0.000181217)
(0.0502492 -2.47053e-06 -0.000114376)
(0.0503028 -1.51392e-06 -7.33421e-05)
(0.0505524 -1.26909e-05 -0.00126277)
(0.0501168 -1.10156e-05 -0.00106772)
(0.0499598 -8.28978e-06 -0.000539912)
(0.0500728 -5.73819e-06 -0.000298827)
(0.0501751 -3.82638e-06 -0.000180555)
(0.0502505 -2.5097e-06 -0.000114041)
(0.0503036 -1.62437e-06 -7.31688e-05)
(0.0505531 -8.59941e-06 -0.00126042)
(0.0501183 -7.63563e-06 -0.00106575)
(0.0499617 -6.12663e-06 -0.000538558)
(0.0500746 -4.5761e-06 -0.000298003)
(0.0501765 -3.27073e-06 -0.00018008)
(0.0502514 -2.27162e-06 -0.000113771)
(0.0503043 -1.53735e-06 -7.30169e-05)
(0.0505534 -5.86157e-06 -0.00125924)
(0.0501192 -5.30269e-06 -0.00106473)
(0.0499629 -4.43907e-06 -0.000537798)
(0.0500757 -3.49042e-06 -0.000297489)
(0.0501774 -2.62175e-06 -0.000179751)
(0.0502522 -1.90091e-06 -0.000113567)
(0.0503049 -1.33213e-06 -7.28933e-05)
(0.0505536 -3.95554e-06 -0.00125861)
(0.0501197 -3.62855e-06 -0.00106418)
(0.0499636 -3.1241e-06 -0.000537361)
(0.0500764 -2.54335e-06 -0.000297171)
(0.0501781 -1.97802e-06 -0.000179532)
(0.0502527 -1.47993e-06 -0.000113422)
(0.0503053 -1.06475e-06 -7.28001e-05)
(0.00484018 -5.81425e-06 -0.000994601)
(0.00457049 -5.56375e-06 -0.000849432)
(0.00443427 -3.84028e-06 -0.000563224)
(0.00443318 -2.19008e-06 -0.000368936)
(0.00446786 -1.21731e-06 -0.000245322)
(0.00450645 -6.91154e-07 -0.000164597)
(0.00453924 -4.01289e-07 -0.000109681)
(0.00484099 -1.13531e-05 -0.000979796)
(0.0045732 -1.04173e-05 -0.000836704)
(0.00443843 -7.3998e-06 -0.00055711)
(0.00443658 -4.53106e-06 -0.000366584)
(0.00447013 -2.69512e-06 -0.00024433)
(0.00450801 -1.61319e-06 -0.000164128)
(0.00454041 -9.74549e-07 -0.000109438)
(0.0048419 -1.10303e-05 -0.000970973)
(0.00457561 -9.70877e-06 -0.00082939)
(0.00444159 -7.27946e-06 -0.000552892)
(0.00443924 -4.94011e-06 -0.000364474)
(0.00447201 -3.21968e-06 -0.000243291)
(0.0045093 -2.06749e-06 -0.000163604)
(0.00454131 -1.31516e-06 -0.000109164)
(0.00484252 -8.78729e-06 -0.000966382)
(0.00457718 -7.78303e-06 -0.000825594)
(0.0044436 -6.16223e-06 -0.000550378)
(0.00444104 -4.50688e-06 -0.000363009)
(0.00447338 -3.14823e-06 -0.00024248)
(0.00451026 -2.14105e-06 -0.000163162)
(0.00454199 -1.42366e-06 -0.000108922)
(0.00484293 -6.58417e-06 -0.000963885)
(0.00457819 -5.92138e-06 -0.00082347)
(0.0044449 -4.88938e-06 -0.00054884)
(0.00444229 -3.77275e-06 -0.000362008)
(0.00447441 -2.77771e-06 -0.000241865)
(0.00451105 -1.97698e-06 -0.000162795)
(0.00454257 -1.36394e-06 -0.000108707)
(0.00484319 -4.78462e-06 -0.000962477)
(0.00457882 -4.36326e-06 -0.000822244)
(0.00444574 -3.71436e-06 -0.000547893)
(0.00444315 -2.9795e-06 -0.00036134)
(0.00447517 -2.28137e-06 -0.000241421)
(0.00451168 -1.68222e-06 -0.00016251)
(0.00454306 -1.1953e-06 -0.000108529)
(0.00484335 -3.36342e-06 -0.000961668)
(0.00457921 -3.10077e-06 -0.000821523)
(0.00444628 -2.69744e-06 -0.000547311)
(0.00444373 -2.22413e-06 -0.000360904)
(0.00447571 -1.75223e-06 -0.000241113)
(0.00451214 -1.32657e-06 -0.000162301)
(0.00454345 -9.64151e-07 -0.000108392)
(0.449955 -2.41426e-07 -1.59315e-05)
(0.44998 -1.31762e-07 -8.74754e-06)
(0.449991 -5.81313e-08 -2.91846e-06)
(0.449991 2.25586e-09 2.48666e-06)
(0.449981 6.5214e-08 8.23882e-06)
(0.449958 1.48793e-07 1.52363e-05)
(0.449956 -6.28708e-07 -1.58952e-05)
(0.44998 -3.47206e-07 -8.72758e-06)
(0.449991 -1.52153e-07 -2.91047e-06)
(0.449992 9.38697e-09 2.48421e-06)
(0.449981 1.77906e-07 8.22574e-06)
(0.449958 3.9807e-07 1.52104e-05)
(0.449956 -8.98351e-07 -1.58596e-05)
(0.449981 -5.06879e-07 -8.70986e-06)
(0.449992 -2.24052e-07 -2.90386e-06)
(0.449992 1.57e-08 2.4823e-06)
(0.449982 2.63602e-07 8.21457e-06)
(0.449959 5.75903e-07 1.51852e-05)
(0.449957 -9.99963e-07 -1.58279e-05)
(0.449981 -5.79255e-07 -8.69425e-06)
(0.449992 -2.60555e-07 -2.89758e-06)
(0.449993 1.54926e-08 2.48111e-06)
(0.449982 2.97761e-07 8.20529e-06)
(0.449959 6.37783e-07 1.51641e-05)
(0.449958 -9.73836e-07 -1.5798e-05)
(0.449981 -5.78489e-07 -8.67864e-06)
(0.449992 -2.65253e-07 -2.89139e-06)
(0.449993 1.0888e-08 2.48008e-06)
(0.449982 2.90466e-07 8.19638e-06)
(0.449959 6.13993e-07 1.51439e-05)
(0.449958 -8.63055e-07 -1.57725e-05)
(0.449982 -5.23737e-07 -8.66482e-06)
(0.449993 -2.4498e-07 -2.88555e-06)
(0.449993 5.17662e-09 2.4792e-06)
(0.449983 2.56003e-07 8.18854e-06)
(0.44996 5.36486e-07 1.5127e-05)
(0.449958 -7.01884e-07 -1.57525e-05)
(0.449982 -4.33323e-07 -8.65355e-06)
(0.449993 -2.06054e-07 -2.88081e-06)
(0.449993 4.51684e-10 2.47844e-06)
(0.449983 2.06112e-07 8.18221e-06)
(0.44996 4.30129e-07 1.51137e-05)
(0.0503371 -2.49824e-07 -4.59434e-05)
(0.0503596 -1.36535e-07 -2.53947e-05)
(0.0503703 -6.03082e-08 -8.38907e-06)
(0.0503706 2.19122e-09 7.50397e-06)
(0.0503603 6.77652e-08 2.43594e-05)
(0.0503385 1.55758e-07 4.4552e-05)
(0.050338 -6.43763e-07 -4.58634e-05)
(0.0503603 -3.57472e-07 -2.5353e-05)
(0.050371 -1.57317e-07 -8.37308e-06)
(0.0503713 1.00575e-08 7.49829e-06)
(0.0503611 1.84589e-07 2.43303e-05)
(0.0503394 4.11236e-07 4.44926e-05)
(0.0503388 -9.17567e-07 -4.57669e-05)
(0.0503609 -5.21757e-07 -2.53047e-05)
(0.0503715 -2.31077e-07 -8.3551e-06)
(0.0503718 1.70584e-08 7.49251e-06)
(0.0503616 2.73313e-07 2.42987e-05)
(0.05034 5.92236e-07 4.44224e-05)
(0.0503394 -1.02277e-06 -4.56764e-05)
(0.0503613 -5.9636e-07 -2.52594e-05)
(0.0503719 -2.68698e-07 -8.33711e-06)
(0.0503721 1.66176e-08 7.48882e-06)
(0.0503619 3.08017e-07 2.42715e-05)
(0.0503404 6.55531e-07 4.43607e-05)
(0.0503399 -1.00029e-06 -4.55917e-05)
(0.0503617 -5.96961e-07 -2.52148e-05)
(0.0503722 -2.74269e-07 -8.31913e-06)
(0.0503724 1.20342e-08 7.48565e-06)
(0.0503623 3.0126e-07 2.42455e-05)
(0.0503408 6.3298e-07 4.43031e-05)
(0.0503403 -8.90449e-07 -4.55189e-05)
(0.0503621 -5.42127e-07 -2.51749e-05)
(0.0503725 -2.53574e-07 -8.3025e-06)
(0.0503726 6.25785e-09 7.48284e-06)
(0.0503626 2.6653e-07 2.42226e-05)
(0.0503412 5.55695e-07 4.42541e-05)
(0.0503406 -7.26655e-07 -4.54614e-05)
(0.0503623 -4.49502e-07 -2.51423e-05)
(0.0503727 -2.13564e-07 -8.28856e-06)
(0.0503729 1.46176e-09 7.48083e-06)
(0.0503628 2.15553e-07 2.42041e-05)
(0.0503415 4.47582e-07 4.42156e-05)
(0.00456369 -2.33918e-07 -7.00558e-05)
(0.00457965 -1.30141e-07 -3.92341e-05)
(0.00458755 -5.71715e-08 -1.29866e-05)
(0.0045877 3.88718e-09 1.17962e-05)
(0.00458009 6.75518e-08 3.78738e-05)
(0.00456442 1.50827e-07 6.83105e-05)
(0.00456465 -5.84321e-07 -6.99231e-05)
(0.0045805 -3.30082e-07 -3.91646e-05)
(0.00458835 -1.45899e-07 -1.29607e-05)
(0.00458848 1.05015e-08 1.17846e-05)
(0.00458091 1.72747e-07 3.78222e-05)
(0.00456532 3.77887e-07 6.8205e-05)
(0.00456532 -8.17504e-07 -6.97769e-05)
(0.00458104 -4.72341e-07 -3.90901e-05)
(0.00458883 -2.1153e-07 -1.29326e-05)
(0.00458895 1.41139e-08 1.17749e-05)
(0.00458141 2.45833e-07 3.77714e-05)
(0.00456591 5.26516e-07 6.80961e-05)
(0.0045658 -9.1385e-07 -6.96457e-05)
(0.0045814 -5.40137e-07 -3.90223e-05)
(0.00458912 -2.46053e-07 -1.29056e-05)
(0.00458923 1.2851e-08 1.17695e-05)
(0.00458172 2.75628e-07 3.77311e-05)
(0.0045663 5.82204e-07 6.80058e-05)
(0.00456623 -9.00538e-07 -6.95224e-05)
(0.00458174 -5.43195e-07 -3.89561e-05)
(0.00458941 -2.51973e-07 -1.28783e-05)
(0.0045895 8.46224e-09 1.17648e-05)
(0.00458201 2.70462e-07 3.76925e-05)
(0.00456664 5.66e-07 6.79222e-05)
(0.00456662 -8.07706e-07 -6.9415e-05)
(0.00458205 -4.95872e-07 -3.88962e-05)
(0.00458968 -2.33899e-07 -1.2853e-05)
(0.00458975 3.45137e-09 1.1761e-05)
(0.00458228 2.40474e-07 3.76584e-05)
(0.00456695 5.00561e-07 6.785e-05)
(0.00456693 -6.63492e-07 -6.93292e-05)
(0.00458231 -4.13194e-07 -3.88471e-05)
(0.00458991 -1.97724e-07 -1.28318e-05)
(0.00458997 -3.13557e-10 1.17581e-05)
(0.0045825 1.95621e-07 3.76308e-05)
(0.00456721 4.05841e-07 6.77928e-05)
(0.449918 2.85905e-07 2.48816e-05)
(0.449854 5.50442e-07 3.98521e-05)
(0.449751 1.13672e-06 6.59858e-05)
(0.449565 2.7891e-06 0.000117775)
(0.449202 8.66789e-06 0.000240923)
(0.449231 2.29216e-05 0.000562328)
(0.449918 2.34928e-05 0.000755715)
(0.449919 7.42722e-07 2.48358e-05)
(0.449855 1.3625e-06 3.97667e-05)
(0.449753 2.60631e-06 6.57956e-05)
(0.449573 5.52861e-06 0.000117068)
(0.449221 1.38106e-05 0.000237228)
(0.449246 3.14935e-05 0.000549458)
(0.449919 3.32573e-05 0.000742924)
(0.449919 1.03382e-06 2.47851e-05)
(0.449857 1.77873e-06 3.96587e-05)
(0.449755 3.0763e-06 6.55414e-05)
(0.449577 5.43587e-06 0.000116405)
(0.449229 9.74794e-06 0.000235361)
(0.449252 1.59304e-05 0.000545139)
(0.44992 1.80424e-05 0.000738081)
(0.44992 1.10206e-06 2.47416e-05)
(0.449858 1.78574e-06 3.95697e-05)
(0.449757 2.82904e-06 6.53544e-05)
(0.44958 4.41601e-06 0.000116006)
(0.449232 6.66762e-06 0.00023454)
(0.449254 9.17324e-06 0.000543712)
(0.449921 1.04514e-05 0.000736392)
(0.44992 1.02752e-06 2.47032e-05)
(0.449858 1.58703e-06 3.94985e-05)
(0.449758 2.3552e-06 6.52235e-05)
(0.449581 3.38097e-06 0.00011577)
(0.449234 4.63479e-06 0.000234136)
(0.449255 5.86788e-06 0.000543108)
(0.449922 6.58732e-06 0.000735683)
(0.449921 8.76406e-07 2.46724e-05)
(0.449859 1.30548e-06 3.94457e-05)
(0.449759 1.84776e-06 6.5136e-05)
(0.449582 2.5061e-06 0.000115629)
(0.449235 3.2324e-06 0.000233922)
(0.449256 3.89294e-06 0.000542818)
(0.449922 4.29872e-06 0.00073535)
(0.449921 6.90357e-07 2.46494e-05)
(0.449859 1.00174e-06 3.94088e-05)
(0.449759 1.37146e-06 6.5079e-05)
(0.449582 1.7902e-06 0.000115545)
(0.449235 2.22064e-06 0.000233805)
(0.449257 2.59225e-06 0.000542669)
(0.449922 2.82451e-06 0.000735182)
(0.0503027 2.99699e-07 7.1587e-05)
(0.050249 5.72722e-07 0.000111609)
(0.0501717 1.15044e-06 0.000176642)
(0.0500645 2.50843e-06 0.000292615)
(0.0499387 5.91971e-06 0.000527179)
(0.0500448 1.17164e-05 0.00103439)
(0.0504897 1.22341e-05 0.00134937)
(0.0503038 7.61769e-07 7.14755e-05)
(0.0502505 1.37454e-06 0.000111383)
(0.0501743 2.54296e-06 0.000176109)
(0.0500699 4.94019e-06 0.000290918)
(0.0499483 1.00602e-05 0.000520389)
(0.0500516 1.79436e-05 0.00101424)
(0.050491 1.93082e-05 0.00132844)
(0.0503047 1.04997e-06 7.13347e-05)
(0.0502518 1.76976e-06 0.000111091)
(0.0501765 2.95958e-06 0.00017546)
(0.0500735 4.94822e-06 0.000289378)
(0.0499533 8.10043e-06 0.000516585)
(0.0500555 1.19067e-05 0.00100636)
(0.0504922 1.34704e-05 0.00131954)
(0.0503053 1.12082e-06 7.12111e-05)
(0.0502528 1.78784e-06 0.000110847)
(0.0501779 2.7682e-06 0.000174972)
(0.0500756 4.18109e-06 0.000288403)
(0.0499558 6.04589e-06 0.000514721)
(0.0500574 7.97575e-06 0.0010033)
(0.0504929 9.03044e-06 0.00131591)
(0.0503058 1.05134e-06 7.11028e-05)
(0.0502535 1.60614e-06 0.000110651)
(0.0501789 2.3477e-06 0.000174624)
(0.0500768 3.30492e-06 0.000287798)
(0.0499572 4.42634e-06 0.00051373)
(0.0500584 5.48769e-06 0.00100187)
(0.0504933 6.13058e-06 0.00131423)
(0.0503063 9.02254e-07 7.10152e-05)
(0.0502541 1.33351e-06 0.000110504)
(0.0501796 1.86868e-06 0.000174385)
(0.0500776 2.50388e-06 0.000287423)
(0.049958 3.18705e-06 0.000513177)
(0.050059 3.79584e-06 0.00100113)
(0.0504935 4.1809e-06 0.00131339)
(0.0503066 7.148e-07 7.09494e-05)
(0.0502545 1.03109e-06 0.000110399)
(0.0501801 1.40184e-06 0.000174225)
(0.0500782 1.81544e-06 0.000287191)
(0.0499585 2.23374e-06 0.00051286)
(0.0500594 2.5911e-06 0.00100073)
(0.0504937 2.82069e-06 0.00131294)
(0.00454023 2.79562e-07 0.000107233)
(0.00450753 5.01116e-07 0.000160942)
(0.0044685 9.06227e-07 0.000239656)
(0.00443187 1.66181e-06 0.000360054)
(0.00442629 2.96105e-06 0.000549224)
(0.00454584 4.25029e-06 0.000833167)
(0.00482024 3.80421e-06 0.0010224)
(0.0045413 6.7916e-07 0.000107038)
(0.00450892 1.16532e-06 0.000160567)
(0.00447046 1.98899e-06 0.000238865)
(0.00443475 3.39322e-06 0.000358175)
(0.00442974 5.59727e-06 0.000544288)
(0.00454757 7.79884e-06 0.000822796)
(0.00482042 7.69472e-06 0.00101133)
(0.00454206 9.11977e-07 0.000106829)
(0.00450996 1.48149e-06 0.000160164)
(0.00447196 2.34578e-06 0.000238064)
(0.00443683 3.63001e-06 0.000356541)
(0.00443214 5.35637e-06 0.000541012)
(0.00454917 7.06237e-06 0.000817133)
(0.00482089 7.73898e-06 0.00100482)
(0.00454258 9.78776e-07 0.000106655)
(0.0045107 1.52131e-06 0.00015984)
(0.00447298 2.27144e-06 0.000237461)
(0.00443816 3.27175e-06 0.000355445)
(0.00443358 4.47145e-06 0.00053913)
(0.00455022 5.59968e-06 0.000814314)
(0.00482127 6.22988e-06 0.00100149)
(0.00454303 9.28607e-07 0.000106502)
(0.00451129 1.39292e-06 0.000159573)
(0.00447374 1.98755e-06 0.00023701)
(0.00443907 2.71584e-06 0.000354707)
(0.0044345 3.51899e-06 0.000537998)
(0.0045509 4.2391e-06 0.000812762)
(0.00482153 4.68224e-06 0.000999689)
(0.00454341 8.05942e-07 0.000106376)
(0.00451176 1.17602e-06 0.000159366)
(0.0044743 1.62129e-06 0.000236685)
(0.00443969 2.13134e-06 0.000354218)
(0.0044351 2.65905e-06 0.000537305)
(0.00455134 3.11469e-06 0.000811871)
(0.0048217 3.40577e-06 0.000998674)
(0.0045437 6.44314e-07 0.000106279)
(0.00451211 9.2114e-07 0.000159216)
(0.0044747 1.23829e-06 0.000236461)
(0.00444011 1.58355e-06 0.000353901)
(0.00443548 1.92409e-06 0.000536882)
(0.00455161 2.20937e-06 0.000811349)
(0.00482181 2.39393e-06 0.000998089)
(0.450066 -2.51102e-06 -0.000706641)
(0.449362 -2.32605e-06 -0.000599823)
(0.449194 -2.03265e-06 -0.00025428)
(0.449564 -1.68541e-06 -0.000122516)
(0.449752 -1.33575e-06 -6.83069e-05)
(0.449855 -1.01702e-06 -4.10842e-05)
(0.449919 -7.42872e-07 -2.56113e-05)
(0.450066 -1.39644e-06 -0.000706577)
(0.449362 -1.30177e-06 -0.000599764)
(0.449195 -1.15146e-06 -0.00025423)
(0.449564 -9.69327e-07 -0.000122477)
(0.449752 -7.80523e-07 -6.82776e-05)
(0.449855 -6.03172e-07 -4.10633e-05)
(0.449919 -4.46335e-07 -2.5597e-05)
(0.450066 -4.48716e-07 -0.000706549)
(0.449362 -4.19447e-07 -0.000599738)
(0.449195 -3.73018e-07 -0.000254208)
(0.449564 -3.16292e-07 -0.000122459)
(0.449752 -2.56657e-07 -6.8264e-05)
(0.449855 -1.99818e-07 -4.10534e-05)
(0.449919 -1.48885e-07 -2.55901e-05)
(0.450066 4.48148e-07 -0.000706549)
(0.449362 4.19472e-07 -0.000599738)
(0.449195 3.73136e-07 -0.000254208)
(0.449564 3.16303e-07 -0.000122459)
(0.449752 2.56513e-07 -6.8264e-05)
(0.449855 1.99521e-07 -4.10534e-05)
(0.449919 1.48361e-07 -2.55901e-05)
(0.450066 1.39588e-06 -0.000706577)
(0.449362 1.3019e-06 -0.000599764)
(0.449195 1.1516e-06 -0.00025423)
(0.449564 9.69397e-07 -0.000122477)
(0.449752 7.80463e-07 -6.82775e-05)
(0.449855 6.02981e-07 -4.10632e-05)
(0.449919 4.45911e-07 -2.5597e-05)
(0.450066 2.51034e-06 -0.000706641)
(0.449362 2.32622e-06 -0.000599823)
(0.449194 2.0329e-06 -0.00025428)
(0.449564 1.68549e-06 -0.000122516)
(0.449752 1.33572e-06 -6.83068e-05)
(0.449855 1.0169e-06 -4.10841e-05)
(0.449919 7.42557e-07 -2.56113e-05)
(0.0505538 -2.54813e-06 -0.00125827)
(0.05012 -2.35968e-06 -0.00106387)
(0.049964 -2.06906e-06 -0.000537108)
(0.0500768 -1.72322e-06 -0.000296976)
(0.0501785 -1.37209e-06 -0.000179391)
(0.0502531 -1.04914e-06 -0.000113324)
(0.0503057 -7.69034e-07 -7.27345e-05)
(0.0505538 -1.42942e-06 -0.00125809)
(0.0501202 -1.33151e-06 -0.0010637)
(0.0499642 -1.18023e-06 -0.000536967)
(0.0500771 -9.96578e-07 -0.000296865)
(0.0501788 -8.05082e-07 -0.000179308)
(0.0502533 -6.24023e-07 -0.000113264)
(0.0503059 -4.62848e-07 -7.26932e-05)
(0.0505538 -4.60962e-07 -0.00125801)
(0.0501202 -4.30199e-07 -0.00106363)
(0.0499643 -3.83247e-07 -0.000536905)
(0.0500772 -3.25666e-07 -0.000296814)
(0.0501789 -2.64832e-07 -0.000179269)
(0.0502534 -2.06541e-07 -0.000113236)
(0.050306 -1.53996e-07 -7.26732e-05)
(0.0505538 4.61216e-07 -0.00125801)
(0.0501202 4.31392e-07 -0.00106363)
(0.0499643 3.84517e-07 -0.000536905)
(0.0500772 3.26947e-07 -0.000296814)
(0.0501789 2.66115e-07 -0.000179269)
(0.0502534 2.07831e-07 -0.000113236)
(0.050306 1.5527e-07 -7.26732e-05)
(0.0505538 1.42986e-06 -0.00125809)
(0.0501202 1.3328e-06 -0.0010637)
(0.0499642 1.18168e-06 -0.000536967)
(0.0500771 9.98006e-07 -0.000296865)
(0.0501788 8.06493e-07 -0.000179308)
(0.0502533 6.25463e-07 -0.000113264)
(0.0503059 4.64314e-07 -7.26931e-05)
(0.0505538 2.54857e-06 -0.00125827)
(0.05012 2.36126e-06 -0.00106387)
(0.049964 2.0706e-06 -0.000537108)
(0.0500768 1.72471e-06 -0.000296976)
(0.0501785 1.37355e-06 -0.000179391)
(0.0502531 1.05058e-06 -0.000113324)
(0.0503057 7.70522e-07 -7.27345e-05)
(0.00484344 -2.22256e-06 -0.0009612)
(0.00457946 -2.06507e-06 -0.000821101)
(0.00444661 -1.82297e-06 -0.000546958)
(0.0044441 -1.53136e-06 -0.000360629)
(0.00447607 -1.23049e-06 -0.000240909)
(0.00451247 -9.4907e-07 -0.000162157)
(0.00454373 -7.01063e-07 -0.000108294)
(0.0048435 -1.26564e-06 -0.000960942)
(0.00457959 -1.18148e-06 -0.000820865)
(0.00444681 -1.0524e-06 -0.000546757)
(0.00444432 -8.94318e-07 -0.000360468)
(0.00447629 -7.27505e-07 -0.000240786)
(0.00451267 -5.67748e-07 -0.000162068)
(0.00454391 -4.23758e-07 -0.000108232)
(0.00484353 -4.10848e-07 -0.000960827)
(0.00457966 -3.84096e-07 -0.000820759)
(0.0044469 -3.43551e-07 -0.000546665)
(0.00444442 -2.93464e-07 -0.000360393)
(0.0044764 -2.4006e-07 -0.000240728)
(0.00451277 -1.8832e-07 -0.000162025)
(0.004544 -1.41147e-07 -0.000108202)
(0.00484353 4.11254e-07 -0.000960827)
(0.00457966 3.85511e-07 -0.000820759)
(0.0044469 3.45089e-07 -0.000546665)
(0.00444442 2.95049e-07 -0.000360393)
(0.0044764 2.41654e-07 -0.000240728)
(0.00451277 1.89928e-07 -0.000162025)
(0.004544 1.428e-07 -0.000108202)
(0.0048435 1.26609e-06 -0.000960943)
(0.00457959 1.18302e-06 -0.000820865)
(0.00444681 1.05407e-06 -0.000546756)
(0.00444432 8.9598e-07 -0.000360467)
(0.00447629 7.29204e-07 -0.000240786)
(0.00451267 5.69504e-07 -0.000162067)
(0.00454391 4.2549e-07 -0.000108232)
(0.00484344 2.22323e-06 -0.000961201)
(0.00457946 2.06672e-06 -0.000821101)
(0.00444661 1.82467e-06 -0.000546958)
(0.0044441 1.53305e-06 -0.000360629)
(0.00447607 1.23215e-06 -0.000240909)
(0.00451247 9.50823e-07 -0.000162157)
(0.00454373 7.02782e-07 -0.000108294)
(0.449959 -5.13406e-07 -1.5738e-05)
(0.449982 -3.21066e-07 -8.64512e-06)
(0.449993 -1.54756e-07 -2.87705e-06)
(0.449993 -2.12425e-09 2.47808e-06)
(0.449983 1.49127e-07 8.1776e-06)
(0.44996 3.1072e-07 1.51042e-05)
(0.449959 -3.11793e-07 -1.57287e-05)
(0.449982 -1.96727e-07 -8.63971e-06)
(0.449993 -9.58071e-08 -2.87464e-06)
(0.449994 -2.57733e-09 2.47785e-06)
(0.449983 8.94777e-08 8.17467e-06)
(0.44996 1.8662e-07 1.50981e-05)
(0.449959 -1.04647e-07 -1.57241e-05)
(0.449982 -6.64617e-08 -8.63698e-06)
(0.449993 -3.277e-08 -2.87343e-06)
(0.449994 -1.50844e-09 2.47769e-06)
(0.449983 2.93072e-08 8.17317e-06)
(0.44996 6.16161e-08 1.50951e-05)
(0.449959 1.03974e-07 -1.57241e-05)
(0.449982 6.55744e-08 -8.63701e-06)
(0.449993 3.15992e-08 -2.87344e-06)
(0.449994 1.44511e-10 2.47769e-06)
(0.449983 -3.08497e-08 8.17319e-06)
(0.44996 -6.33564e-08 1.50952e-05)
(0.449959 3.11207e-07 -1.57286e-05)
(0.449982 1.95907e-07 -8.63972e-06)
(0.449993 9.47569e-08 -2.87465e-06)
(0.449994 1.33363e-09 2.47781e-06)
(0.449983 -9.09362e-08 8.17464e-06)
(0.44996 -1.88308e-07 1.50981e-05)
(0.449959 5.12942e-07 -1.57379e-05)
(0.449982 3.20358e-07 -8.64524e-06)
(0.449993 1.53814e-07 -2.87713e-06)
(0.449993 9.7006e-10 2.47804e-06)
(0.449983 -1.50483e-07 8.17757e-06)
(0.44996 -3.1228e-07 1.51041e-05)
(0.0503409 -5.32794e-07 -4.54196e-05)
(0.0503626 -3.33494e-07 -2.51181e-05)
(0.0503729 -1.60276e-07 -8.27795e-06)
(0.0503731 -9.89029e-10 7.47956e-06)
(0.050363 1.56741e-07 2.41907e-05)
(0.0503417 3.24595e-07 4.41879e-05)
(0.0503411 -3.23757e-07 -4.53926e-05)
(0.0503627 -2.04195e-07 -2.51021e-05)
(0.0503731 -9.88258e-08 -8.27085e-06)
(0.0503732 -1.31474e-09 7.47876e-06)
(0.0503631 9.49276e-08 2.4182e-05)
(0.0503418 1.96063e-07 4.41701e-05)
(0.0503412 -1.0808e-07 -4.53794e-05)
(0.0503628 -6.82715e-08 -2.50942e-05)
(0.0503731 -3.2992e-08 -8.26736e-06)
(0.0503733 -2.28911e-10 7.47836e-06)
(0.0503632 3.2126e-08 2.41777e-05)
(0.0503419 6.5903e-08 4.41615e-05)
(0.0503412 1.09445e-07 -4.53794e-05)
(0.0503628 6.96507e-08 -2.50942e-05)
(0.0503731 3.43077e-08 -8.26738e-06)
(0.0503733 1.56166e-09 7.47835e-06)
(0.0503632 -3.06661e-08 2.41777e-05)
(0.0503419 -6.44313e-08 4.41615e-05)
(0.0503411 3.25193e-07 -4.53926e-05)
(0.0503627 2.05606e-07 -2.51021e-05)
(0.0503731 1.00207e-07 -8.27094e-06)
(0.0503732 2.76051e-09 7.47868e-06)
(0.0503631 -9.3433e-08 2.41819e-05)
(0.0503418 -1.94631e-07 4.417e-05)
(0.0503409 5.342e-07 -4.54197e-05)
(0.0503626 3.34891e-07 -2.51182e-05)
(0.0503729 1.61637e-07 -8.27808e-06)
(0.0503731 2.3552e-09 7.47942e-06)
(0.050363 -1.55413e-07 2.41905e-05)
(0.0503417 -3.23287e-07 4.41877e-05)
(0.00456717 -4.88895e-07 -6.92661e-05)
(0.00458252 -3.07687e-07 -3.881e-05)
(0.00459009 -1.48829e-07 -1.28154e-05)
(0.00459015 -2.07173e-09 1.17563e-05)
(0.00458268 1.42956e-07 3.76106e-05)
(0.0045674 2.96065e-07 6.77512e-05)
(0.00456733 -2.98042e-07 -6.9225e-05)
(0.00458265 -1.88778e-07 -3.87856e-05)
(0.00459021 -9.18515e-08 -1.28045e-05)
(0.00459027 -1.82956e-09 1.17551e-05)
(0.0045828 8.68511e-08 3.75973e-05)
(0.00456753 1.79515e-07 6.77243e-05)
(0.0045674 -9.9541e-08 -6.92048e-05)
(0.00458272 -6.30649e-08 -3.87734e-05)
(0.00459028 -3.05694e-08 -1.27991e-05)
(0.00459033 -1.98652e-10 1.17546e-05)
(0.00458286 2.9691e-08 3.75909e-05)
(0.0045676 6.0692e-08 6.77112e-05)
(0.0045674 1.01236e-07 -6.92048e-05)
(0.00458272 6.48118e-08 -3.87735e-05)
(0.00459028 3.22135e-08 -1.27991e-05)
(0.00459033 1.96895e-09 1.17546e-05)
(0.00458286 -2.77764e-08 3.75908e-05)
(0.0045676 -5.87387e-08 6.77112e-05)
(0.00456733 2.99773e-07 -6.9225e-05)
(0.00458265 1.90531e-07 -3.87857e-05)
(0.00459021 9.3604e-08 -1.28046e-05)
(0.00459027 3.65547e-09 1.1755e-05)
(0.0045828 -8.50289e-08 3.75972e-05)
(0.00456753 -1.77701e-07 6.77242e-05)
(0.00456717 4.9065e-07 -6.92661e-05)
(0.00458252 3.0939e-07 -3.88102e-05)
(0.00459009 1.50547e-07 -1.28156e-05)
(0.00459015 3.85468e-09 1.1756e-05)
(0.00458268 -1.41164e-07 3.76103e-05)
(0.0045674 -2.94256e-07 6.77509e-05)
(0.449922 4.92745e-07 2.46336e-05)
(0.44986 7.02226e-07 3.93843e-05)
(0.44976 9.40046e-07 6.5043e-05)
(0.449583 1.19673e-06 0.000115494)
(0.449236 1.44839e-06 0.000233739)
(0.449257 1.65823e-06 0.000542589)
(0.449922 1.78954e-06 0.000735093)
(0.449922 2.93901e-07 2.46236e-05)
(0.44986 4.14278e-07 3.93694e-05)
(0.44976 5.47036e-07 6.5022e-05)
(0.449583 6.86051e-07 0.000115466)
(0.449236 8.18484e-07 0.000233703)
(0.449257 9.26447e-07 0.000542547)
(0.449922 9.93443e-07 0.000735046)
(0.449922 9.69531e-08 2.46188e-05)
(0.44986 1.3615e-07 3.93625e-05)
(0.44976 1.78772e-07 6.50123e-05)
(0.449583 2.22748e-07 0.000115453)
(0.449236 2.64106e-07 0.000233688)
(0.449257 2.97418e-07 0.000542528)
(0.449922 3.17172e-07 0.000735026)
(0.449922 -9.89222e-08 2.46188e-05)
(0.44986 -1.38298e-07 3.93625e-05)
(0.44976 -1.81108e-07 6.50123e-05)
(0.449583 -2.25201e-07 0.000115453)
(0.449236 -2.66561e-07 0.000233688)
(0.449257 -3.00029e-07 0.000542528)
(0.449922 -3.22521e-07 0.000735026)
(0.449922 -2.95833e-07 2.46236e-05)
(0.44986 -4.16397e-07 3.93694e-05)
(0.44976 -5.49335e-07 6.50219e-05)
(0.449583 -6.88434e-07 0.000115466)
(0.449236 -8.20886e-07 0.000233703)
(0.449257 -9.28987e-07 0.000542547)
(0.449922 -9.98616e-07 0.000735046)
(0.449922 -4.94513e-07 2.46335e-05)
(0.44986 -7.04148e-07 3.93843e-05)
(0.44976 -9.42108e-07 6.50429e-05)
(0.449583 -1.19889e-06 0.000115494)
(0.449236 -1.45067e-06 0.000233739)
(0.449257 -1.66057e-06 0.000542589)
(0.449922 -1.79436e-06 0.000735092)
(0.0503069 5.12517e-07 7.09034e-05)
(0.0502548 7.26987e-07 0.000110329)
(0.0501804 9.68087e-07 0.000174123)
(0.0500785 1.22562e-06 0.00028705)
(0.0499588 1.4754e-06 0.000512676)
(0.0500596 1.68244e-06 0.00100051)
(0.0504938 1.81571e-06 0.00131269)
(0.050307 3.07194e-07 7.08745e-05)
(0.0502549 4.31076e-07 0.000110286)
(0.0501806 5.66639e-07 0.000174063)
(0.0500787 7.07445e-07 0.00028697)
(0.0499589 8.40529e-07 0.000512575)
(0.0500597 9.48662e-07 0.00100039)
(0.0504938 1.01764e-06 0.00131256)
(0.0503071 1.02675e-07 7.08606e-05)
(0.050255 1.4318e-07 0.000110266)
(0.0501807 1.86898e-07 0.000174035)
(0.0500787 2.31721e-07 0.000286933)
(0.049959 2.73604e-07 0.000512529)
(0.0500598 3.07203e-07 0.00100034)
(0.0504938 3.27385e-07 0.0013125)
(0.0503071 -1.01192e-07 7.08606e-05)
(0.050255 -1.4164e-07 0.000110266)
(0.0501807 -1.85339e-07 0.000174035)
(0.0500787 -2.30047e-07 0.000286933)
(0.049959 -2.71743e-07 0.000512529)
(0.0500598 -3.05477e-07 0.00100034)
(0.0504938 -3.29364e-07 0.0013125)
(0.050307 -3.058e-07 7.08744e-05)
(0.0502549 -4.29624e-07 0.000110286)
(0.0501806 -5.65162e-07 0.000174063)
(0.0500787 -7.05852e-07 0.00028697)
(0.0499589 -8.38798e-07 0.000512575)
(0.0500597 -9.47016e-07 0.00100039)
(0.0504938 -1.01954e-06 0.00131256)
(0.0503069 -5.11173e-07 7.09033e-05)
(0.0502548 -7.25561e-07 0.000110329)
(0.0501804 -9.66621e-07 0.000174123)
(0.0500785 -1.22403e-06 0.00028705)
(0.0499588 -1.4738e-06 0.000512676)
(0.0500596 -1.68087e-06 0.00100051)
(0.0504938 -1.81749e-06 0.00131269)
(0.00454392 4.65372e-07 0.000106211)
(0.00451235 6.55681e-07 0.000159113)
(0.00447497 8.66006e-07 0.000236314)
(0.00444038 1.08676e-06 0.000353701)
(0.00443572 1.29724e-06 0.000536626)
(0.00455178 1.46952e-06 0.000811043)
(0.00482188 1.58112e-06 0.000997751)
(0.00454406 2.80342e-07 0.000106167)
(0.00451251 3.91292e-07 0.000159049)
(0.00447513 5.11022e-07 0.000236225)
(0.00444054 6.3372e-07 0.000353584)
(0.00443586 7.48259e-07 0.00053648)
(0.00455188 8.40493e-07 0.000810873)
(0.00482192 8.99614e-07 0.000997565)
(0.00454413 9.41317e-08 0.000106146)
(0.00451258 1.30554e-07 0.000159018)
(0.00447521 1.69423e-07 0.000236184)
(0.00444062 2.08808e-07 0.00035353)
(0.00443593 2.45185e-07 0.000536414)
(0.00455192 2.74131e-07 0.000810796)
(0.00482194 2.91544e-07 0.000997482)
(0.00454413 -9.21438e-08 0.000106146)
(0.00451258 -1.28519e-07 0.000159018)
(0.00447521 -1.67357e-07 0.000236184)
(0.00444062 -2.06628e-07 0.00035353)
(0.00443593 -2.42884e-07 0.000536414)
(0.00455192 -2.7203e-07 0.000810796)
(0.00482194 -2.92963e-07 0.000997482)
(0.00454406 -2.78459e-07 0.000106167)
(0.00451251 -3.89333e-07 0.000159049)
(0.00447513 -5.09067e-07 0.000236225)
(0.00444054 -6.31647e-07 0.000353584)
(0.00443586 -7.46052e-07 0.00053648)
(0.00455188 -8.38423e-07 0.000810873)
(0.00482192 -9.00956e-07 0.000997565)
(0.00454392 -4.63508e-07 0.000106211)
(0.00451235 -6.53754e-07 0.000159112)
(0.00447497 -8.64068e-07 0.000236314)
(0.00444038 -1.08467e-06 0.000353701)
(0.00443572 -1.29513e-06 0.000536625)
(0.00455178 -1.46749e-06 0.000811043)
(0.00482188 -1.58227e-06 0.000997751)
(0.450066 3.95893e-06 -0.000706765)
(0.449361 3.62998e-06 -0.000599934)
(0.449194 3.10758e-06 -0.000254372)
(0.449563 2.51164e-06 -0.000122586)
(0.449751 1.93943e-06 -6.83569e-05)
(0.449855 1.44192e-06 -4.11186e-05)
(0.449918 1.03196e-06 -2.56342e-05)
(0.450066 6.02632e-06 -0.000707001)
(0.449361 5.43953e-06 -0.000600142)
(0.449193 4.50599e-06 -0.000254534)
(0.449563 3.49935e-06 -0.000122703)
(0.449751 2.5984e-06 -6.84361e-05)
(0.449854 1.86619e-06 -4.11703e-05)
(0.449918 1.29802e-06 -2.5667e-05)
(0.450065 9.25271e-06 -0.000707471)
(0.44936 8.17399e-06 -0.000600547)
(0.449192 6.42758e-06 -0.000254831)
(0.449562 4.69349e-06 -0.000122898)
(0.44975 3.29144e-06 -6.85575e-05)
(0.449853 2.25276e-06 -4.12439e-05)
(0.449917 1.508e-06 -2.57109e-05)