/*--------------------------------*- C++ -*----------------------------------*\
  =========                 |
  \\      /  F ield         | OpenFOAM: The Open Source CFD Toolbox
   \\    /   O peration     | Website:  https://openfoam.org
    \\  /    A nd           | Version:  7
     \\/     M anipulation  |
\*---------------------------------------------------------------------------*/
FoamFile
{
    version     2.0;
    format      ascii;
    class       volScalarField;
    location    "0.75";
    object      p;
}
// * * * * * * * * * * * * * * * * * * * * * * * * * * * * * * * * * * * * * //

dimensions      [0 2 -2 0 0 0 0];

internalField   nonuniform List<scalar> 
7784
(
2.03497e-10
-0.00124653
-0.00282002
-0.00919058
-0.0139316
-0.017554
-0.0206141
0.00151815
7.86596e-05
-0.00239771
-0.0090214
-0.0138348
-0.0174992
-0.0205831
0.00206527
0.000524243
-0.00215155
-0.00887016
-0.0137366
-0.0174371
-0.0205444
0.0023773
0.000786795
-0.00197004
-0.00874606
-0.0136512
-0.0173791
-0.0205059
0.00258854
0.000968895
-0.00183286
-0.00864619
-0.0135792
-0.017328
-0.0204705
0.00273202
0.0010951
-0.00173169
-0.00856846
-0.0135209
-0.0172852
-0.0204399
0.00282979
0.00118271
-0.00165859
-0.00851009
-0.0134757
-0.0172512
-0.020415
-0.00354702
-0.00418168
-0.00678204
-0.0112831
-0.0151217
-0.0183215
-0.0211156
-0.00277489
-0.00351924
-0.00646469
-0.0111305
-0.0150356
-0.0182721
-0.0210871
-0.00238225
-0.00319405
-0.00625628
-0.0109958
-0.014947
-0.018215
-0.0210509
-0.00212261
-0.00297363
-0.00609588
-0.0108825
-0.0148678
-0.0181605
-0.0210143
-0.00193697
-0.00281253
-0.00597099
-0.0107896
-0.0147999
-0.0181119
-0.0209804
-0.00180556
-0.00269634
-0.00587659
-0.0107161
-0.0147443
-0.0180709
-0.0209509
-0.00171363
-0.00261373
-0.00580727
-0.0106604
-0.0147009
-0.0180381
-0.0209269
-0.0105814
-0.0104987
-0.0116596
-0.0141834
-0.0168984
-0.0194729
-0.0218696
-0.0102635
-0.0102011
-0.011463
-0.0140695
-0.0168295
-0.0194306
-0.0218437
-0.0100055
-0.00997843
-0.0113041
-0.0139616
-0.0167564
-0.0193818
-0.0218116
-0.00981011
-0.00980896
-0.0111744
-0.0138669
-0.0166884
-0.0193341
-0.0217789
-0.0096619
-0.00967846
-0.0110697
-0.0137867
-0.0166287
-0.0192906
-0.0217482
-0.00955169
-0.00958002
-0.010988
-0.0137219
-0.0165789
-0.0192534
-0.0217212
-0.00947181
-0.00950776
-0.0109265
-0.0136719
-0.0165395
-0.0192233
-0.021699
-0.023325
-0.0258179
-0.0281922
-0.0305304
-0.03291
-0.0354132
-0.0233071
-0.0258079
-0.0281876
-0.0305302
-0.0329143
-0.0354234
-0.0232833
-0.0257941
-0.0281812
-0.0305299
-0.0329202
-0.035437
-0.0232585
-0.0257792
-0.028174
-0.0305294
-0.0329265
-0.0354509
-0.0232348
-0.0257647
-0.0281668
-0.0305288
-0.0329323
-0.0354639
-0.0232139
-0.0257515
-0.0281602
-0.030528
-0.0329373
-0.0354751
-0.0231966
-0.0257405
-0.0281545
-0.0305273
-0.0329414
-0.0354843
-0.0236394
-0.0259896
-0.0282434
-0.0304676
-0.0327256
-0.035084
-0.0236228
-0.0259802
-0.028239
-0.0304672
-0.0327294
-0.0350933
-0.0236003
-0.0259671
-0.0282328
-0.0304669
-0.0327351
-0.0351061
-0.0235765
-0.0259527
-0.0282258
-0.0304665
-0.0327411
-0.0351195
-0.0235537
-0.0259386
-0.0282189
-0.0304658
-0.0327467
-0.035132
-0.0235335
-0.0259259
-0.0282125
-0.0304651
-0.0327516
-0.0351429
-0.0235167
-0.0259152
-0.028207
-0.0304644
-0.0327555
-0.0351518
-0.024114
-0.0262486
-0.0283182
-0.0303671
-0.0324388
-0.034577
-0.0240983
-0.0262395
-0.028314
-0.0303669
-0.0324427
-0.0345861
-0.0240779
-0.0262274
-0.0283082
-0.0303666
-0.0324479
-0.0345978
-0.0240563
-0.0262142
-0.0283018
-0.0303662
-0.0324534
-0.0346099
-0.0240355
-0.0262012
-0.0282953
-0.0303656
-0.0324586
-0.0346213
-0.0240168
-0.0261894
-0.0282893
-0.0303649
-0.0324631
-0.0346314
-0.0240012
-0.0261794
-0.0282842
-0.0303642
-0.0324668
-0.0346397
-0.038139
-0.0412175
-0.0448444
-0.049457
-0.0556717
-0.0589268
-0.0591213
-0.0381583
-0.0412529
-0.0449086
-0.0495694
-0.0559563
-0.0598659
-0.0601394
-0.0381825
-0.0412933
-0.0449738
-0.0496706
-0.0561205
-0.0601688
-0.0605028
-0.0382064
-0.0413307
-0.0450298
-0.0497524
-0.0562407
-0.0603457
-0.0607111
-0.038228
-0.0413633
-0.0450767
-0.0498182
-0.0563318
-0.060468
-0.0608526
-0.0382464
-0.0413904
-0.0451147
-0.0498694
-0.0563991
-0.0605526
-0.0609488
-0.0382613
-0.0414119
-0.045144
-0.0499079
-0.0564477
-0.0606112
-0.0610144
-0.0376194
-0.0404269
-0.0436338
-0.0474456
-0.0519411
-0.0548812
-0.0550311
-0.0376371
-0.0404593
-0.0436921
-0.0475505
-0.0521674
-0.0553877
-0.0556021
-0.0376599
-0.0404967
-0.0437513
-0.0476411
-0.0523089
-0.0556161
-0.0558755
-0.0376826
-0.0405319
-0.0438035
-0.0477164
-0.0524166
-0.0557667
-0.056052
-0.0377034
-0.040563
-0.0438479
-0.047778
-0.0525004
-0.0558758
-0.0561775
-0.0377212
-0.0405891
-0.0438842
-0.0478267
-0.0525635
-0.0559541
-0.0562661
-0.0377356
-0.0406099
-0.0439125
-0.0478635
-0.0526098
-0.0560096
-0.056328
-0.036826
-0.0392267
-0.0418021
-0.0445146
-0.0470642
-0.0482927
-0.0479221
-0.0368425
-0.039255
-0.0418495
-0.0445942
-0.0472063
-0.0485184
-0.048141
-0.0368628
-0.0392871
-0.0418987
-0.0446675
-0.0473159
-0.0486756
-0.0483188
-0.0368831
-0.0393181
-0.0419437
-0.0447312
-0.047404
-0.0487922
-0.048452
-0.0369019
-0.0393461
-0.041983
-0.0447847
-0.0474747
-0.048881
-0.0485524
-0.0369183
-0.0393698
-0.0420157
-0.0448277
-0.0475296
-0.0489476
-0.0486269
-0.0369316
-0.0393889
-0.0420414
-0.0448609
-0.0475707
-0.0489962
-0.0486808
0.00289503
0.00124197
-0.00160788
-0.00846853
-0.0134428
-0.0172259
-0.0203963
0.00293519
0.00127879
-0.00157589
-0.00844189
-0.0134213
-0.0172093
-0.0203838
0.00295435
0.00129645
-0.00156043
-0.00842889
-0.0134108
-0.017201
-0.0203777
0.00295432
0.00129641
-0.00156046
-0.00842893
-0.0134109
-0.0172011
-0.0203777
0.00293508
0.00127868
-0.00157601
-0.00844202
-0.0134215
-0.0172094
-0.0203841
0.00289483
0.00124177
-0.00160809
-0.00846876
-0.013443
-0.0172262
-0.0203967
-0.00165137
-0.0025571
-0.00575871
-0.0106205
-0.0146692
-0.0180136
-0.0209087
-0.00161273
-0.00252166
-0.00572791
-0.0105948
-0.0146484
-0.0179975
-0.0208966
-0.00159423
-0.0025046
-0.00571297
-0.0105822
-0.0146383
-0.0179895
-0.0208906
-0.00159427
-0.00250464
-0.00571302
-0.0105822
-0.0146383
-0.0179896
-0.0208907
-0.00161286
-0.00252178
-0.00572804
-0.0105949
-0.0146486
-0.0179977
-0.0208968
-0.00165159
-0.00255732
-0.00575894
-0.0106207
-0.0146694
-0.0180139
-0.0209091
-0.00941644
-0.00945718
-0.0108828
-0.0136356
-0.0165105
-0.0192008
-0.0216822
-0.00938157
-0.00942511
-0.0108548
-0.013612
-0.0164914
-0.0191858
-0.0216709
-0.00936475
-0.00940958
-0.0108411
-0.0136005
-0.016482
-0.0191784
-0.0216653
-0.0093648
-0.00940963
-0.0108411
-0.0136005
-0.016482
-0.0191785
-0.0216654
-0.00938173
-0.00942527
-0.0108549
-0.0136122
-0.0164916
-0.019186
-0.0216711
-0.0094167
-0.00945745
-0.0108831
-0.0136359
-0.0165108
-0.0192012
-0.0216826
-0.0231834
-0.025732
-0.0281501
-0.0305267
-0.0329445
-0.0354913
-0.0231746
-0.0257262
-0.0281471
-0.0305263
-0.0329466
-0.0354959
-0.0231701
-0.0257234
-0.0281457
-0.0305261
-0.0329477
-0.0354983
-0.0231702
-0.0257235
-0.0281458
-0.0305262
-0.0329478
-0.0354985
-0.0231748
-0.0257265
-0.0281475
-0.0305266
-0.032947
-0.0354964
-0.0231838
-0.0257325
-0.0281506
-0.0305273
-0.0329451
-0.035492
-0.0235039
-0.0259069
-0.0282027
-0.0304638
-0.0327585
-0.0351585
-0.0234953
-0.0259013
-0.0281998
-0.0304634
-0.0327606
-0.0351631
-0.023491
-0.0258985
-0.0281984
-0.0304632
-0.0327617
-0.0351654
-0.0234911
-0.0258986
-0.0281985
-0.0304634
-0.0327618
-0.0351656
-0.0234955
-0.0259016
-0.0282001
-0.0304637
-0.032761
-0.0351635
-0.0235043
-0.0259074
-0.0282032
-0.0304644
-0.0327592
-0.0351593
-0.0239893
-0.0261717
-0.0282802
-0.0303636
-0.0324696
-0.034646
-0.0239812
-0.0261664
-0.0282775
-0.0303633
-0.0324715
-0.0346502
-0.0239772
-0.0261638
-0.0282761
-0.0303631
-0.0324725
-0.0346524
-0.0239773
-0.0261639
-0.0282762
-0.0303632
-0.0324726
-0.0346526
-0.0239815
-0.0261667
-0.0282778
-0.0303636
-0.0324719
-0.0346507
-0.0239897
-0.0261721
-0.0282807
-0.0303642
-0.0324702
-0.0346467
-0.0382725
-0.0414279
-0.0451653
-0.0499353
-0.0564815
-0.0606509
-0.0610582
-0.0382799
-0.0414384
-0.0451793
-0.0499529
-0.0565028
-0.0606756
-0.0610852
-0.0382837
-0.0414437
-0.0451862
-0.0499616
-0.0565133
-0.0606876
-0.0610983
-0.0382839
-0.0414439
-0.0451864
-0.0499618
-0.0565135
-0.0606878
-0.0610985
-0.0382804
-0.0414389
-0.0451798
-0.0499535
-0.0565035
-0.0606763
-0.0610859
-0.0382733
-0.0414287
-0.0451663
-0.0499363
-0.0564826
-0.0606521
-0.0610593
-0.0377464
-0.0406253
-0.0439331
-0.0478899
-0.0526422
-0.0560476
-0.0563699
-0.0377537
-0.0406356
-0.0439466
-0.0479069
-0.0526628
-0.0560714
-0.056396
-0.0377574
-0.0406407
-0.0439533
-0.0479153
-0.0526729
-0.056083
-0.0564086
-0.0377575
-0.0406409
-0.0439535
-0.0479155
-0.0526731
-0.0560832
-0.0564088
-0.0377542
-0.0406361
-0.0439472
-0.0479075
-0.0526634
-0.0560721
-0.0563967
-0.0377472
-0.0406262
-0.043934
-0.0478909
-0.0526432
-0.0560487
-0.056371
-0.0369417
-0.0394032
-0.0420603
-0.044885
-0.0476
-0.0490302
-0.0487182
-0.0369484
-0.0394127
-0.0420728
-0.0449006
-0.0476188
-0.0490519
-0.0487418
-0.0369519
-0.0394175
-0.0420791
-0.0449084
-0.0476281
-0.0490624
-0.0487533
-0.0369521
-0.0394177
-0.0420793
-0.0449086
-0.0476283
-0.0490627
-0.0487535
-0.0369489
-0.0394132
-0.0420734
-0.0449012
-0.0476194
-0.0490525
-0.0487424
-0.0369425
-0.039404
-0.0420613
-0.044886
-0.047601
-0.0490313
-0.0487192
0.00282948
0.0011824
-0.0016589
-0.00851042
-0.013476
-0.0172516
-0.0204155
0.00273159
0.00109467
-0.00173213
-0.00856891
-0.0135213
-0.0172858
-0.0204405
0.00258799
0.000968337
-0.00183341
-0.00864676
-0.0135798
-0.0173287
-0.0204712
0.00237662
0.000786122
-0.00197071
-0.00874673
-0.0136519
-0.0173799
-0.0205067
0.00206447
0.000523459
-0.00215231
-0.00887092
-0.0137374
-0.0174379
-0.0205453
0.00151724
7.77629e-05
-0.00239857
-0.00902224
-0.0138356
-0.0175
-0.020584
-9.83881e-07
-0.00124747
-0.00282092
-0.00919144
-0.0139325
-0.0175548
-0.020615
-0.00171395
-0.00261406
-0.0058076
-0.0106608
-0.0147013
-0.0180385
-0.0209274
-0.001806
-0.00269678
-0.00587704
-0.0107166
-0.0147448
-0.0180714
-0.0209515
-0.00193753
-0.00281309
-0.00597155
-0.0107902
-0.0148005
-0.0181126
-0.0209811
-0.00212329
-0.00297431
-0.00609655
-0.0108832
-0.0148685
-0.0181613
-0.0210151
-0.00238304
-0.00319483
-0.00625705
-0.0109966
-0.0149478
-0.0182158
-0.0210518
-0.00277577
-0.0035201
-0.00646553
-0.0111313
-0.0150364
-0.018273
-0.021088
-0.00354794
-0.00418258
-0.00678292
-0.011284
-0.0151226
-0.0183224
-0.0211165
-0.00947218
-0.00950814
-0.0109269
-0.0136723
-0.01654
-0.0192238
-0.0216996
-0.00955217
-0.00958051
-0.0109885
-0.0137224
-0.0165795
-0.019254
-0.0217219
-0.00966249
-0.00967906
-0.0110703
-0.0137874
-0.0166294
-0.0192914
-0.021749
-0.00981082
-0.00980968
-0.0111751
-0.0138676
-0.0166892
-0.0193349
-0.0217798
-0.0100063
-0.00997925
-0.0113049
-0.0139625
-0.0167572
-0.0193827
-0.0218126
-0.0102644
-0.010202
-0.0114639
-0.0140704
-0.0168304
-0.0194316
-0.0218446
-0.0105823
-0.0104997
-0.0116605
-0.0141843
-0.0168993
-0.0194738
-0.0218706
-0.0231972
-0.0257411
-0.0281552
-0.0305281
-0.0329423
-0.0354853
-0.0232146
-0.0257523
-0.028161
-0.030529
-0.0329384
-0.0354764
-0.0232356
-0.0257655
-0.0281678
-0.0305299
-0.0329335
-0.0354653
-0.0232593
-0.0257802
-0.0281751
-0.0305307
-0.0329279
-0.0354525
-0.0232843
-0.0257952
-0.0281823
-0.0305313
-0.0329218
-0.0354387
-0.023308
-0.025809
-0.0281888
-0.0305316
-0.0329159
-0.0354252
-0.0233259
-0.025819
-0.0281935
-0.0305319
-0.0329116
-0.0354151
-0.0235173
-0.0259158
-0.0282077
-0.0304652
-0.0327564
-0.0351528
-0.0235342
-0.0259267
-0.0282133
-0.0304661
-0.0327527
-0.0351441
-0.0235545
-0.0259395
-0.0282199
-0.030467
-0.032748
-0.0351334
-0.0235774
-0.0259537
-0.028227
-0.0304677
-0.0327425
-0.0351211
-0.0236012
-0.0259681
-0.028234
-0.0304683
-0.0327367
-0.0351079
-0.0236238
-0.0259813
-0.0282402
-0.0304687
-0.0327311
-0.0350951
-0.0236404
-0.0259907
-0.0282446
-0.030469
-0.0327272
-0.0350858
-0.0240018
-0.0261801
-0.0282849
-0.030365
-0.0324676
-0.0346406
-0.0240175
-0.0261902
-0.0282902
-0.0303658
-0.0324642
-0.0346326
-0.0240363
-0.0262022
-0.0282964
-0.0303667
-0.0324598
-0.0346228
-0.0240572
-0.0262153
-0.0283029
-0.0303675
-0.0324548
-0.0346115
-0.0240789
-0.0262285
-0.0283094
-0.030368
-0.0324495
-0.0345995
-0.0240994
-0.0262407
-0.0283153
-0.0303684
-0.0324443
-0.0345878
-0.0241151
-0.0262497
-0.0283195
-0.0303686
-0.0324404
-0.0345787
-0.0382624
-0.0414131
-0.0451453
-0.0499093
-0.0564492
-0.0606128
-0.0610159
-0.0382478
-0.0413919
-0.0451163
-0.0498711
-0.0564009
-0.0605545
-0.0609506
-0.0382296
-0.041365
-0.0450786
-0.0498202
-0.0563339
-0.0604702
-0.0608547
-0.0382082
-0.0413326
-0.0450319
-0.0497547
-0.056243
-0.060348
-0.0607135
-0.0381845
-0.0412954
-0.0449761
-0.0496729
-0.056123
-0.0601714
-0.0605054
-0.0381603
-0.0412551
-0.0449109
-0.0495719
-0.0559589
-0.0598685
-0.060142
-0.0381411
-0.0412197
-0.0448468
-0.0494595
-0.0556743
-0.0589295
-0.059124
-0.0377367
-0.0406111
-0.0439138
-0.0478649
-0.0526112
-0.0560111
-0.0563295
-0.0377225
-0.0405906
-0.0438858
-0.0478284
-0.0525653
-0.0559559
-0.0562679
-0.0377049
-0.0405647
-0.0438498
-0.04778
-0.0525024
-0.055878
-0.0561796
-0.0376844
-0.0405338
-0.0438056
-0.0477186
-0.0524189
-0.055769
-0.0560543
-0.0376618
-0.0404988
-0.0437535
-0.0476434
-0.0523113
-0.0556186
-0.055878
-0.0376391
-0.0404614
-0.0436944
-0.047553
-0.05217
-0.0553903
-0.0556048
-0.0376214
-0.0404291
-0.0436361
-0.047448
-0.0519437
-0.0548838
-0.0550337
-0.0369327
-0.0393901
-0.0420426
-0.0448623
-0.0475721
-0.0489976
-0.0486822
-0.0369196
-0.0393713
-0.0420172
-0.0448294
-0.0475313
-0.0489493
-0.0486287
-0.0369035
-0.0393478
-0.0419849
-0.0447866
-0.0474767
-0.0488831
-0.0485545
-0.0368849
-0.03932
-0.0419458
-0.0447333
-0.0474063
-0.0487945
-0.0484542
-0.0368646
-0.0392892
-0.0419008
-0.0446698
-0.0473182
-0.0486781
-0.0483212
-0.0368445
-0.0392571
-0.0418518
-0.0445966
-0.0472088
-0.048521
-0.0481436
-0.0368279
-0.0392288
-0.0418043
-0.0445169
-0.0470667
-0.0482952
-0.0479247
-0.0160728
-0.0156751
-0.0157541
-0.0170732
-0.0188859
-0.0208371
-0.0227919
-0.0159199
-0.0155085
-0.0156349
-0.0169965
-0.0188351
-0.0208035
-0.02277
-0.0157537
-0.0153582
-0.0155212
-0.0169158
-0.0187782
-0.0207639
-0.022743
-0.0156133
-0.0152338
-0.015422
-0.0168409
-0.018723
-0.0207241
-0.0227151
-0.0154998
-0.0151328
-0.0153386
-0.0167753
-0.018673
-0.020687
-0.0226884
-0.0154113
-0.0150532
-0.0152713
-0.0167209
-0.0186305
-0.0206548
-0.0226647
-0.0153448
-0.0149929
-0.0152193
-0.016678
-0.0185963
-0.0206284
-0.0226451
-0.0204359
-0.0193109
-0.019088
-0.0197248
-0.0208658
-0.0222675
-0.0237897
-0.0203482
-0.0192176
-0.019015
-0.0196722
-0.0208284
-0.0222414
-0.0237719
-0.0202412
-0.0191194
-0.0189365
-0.0196131
-0.020785
-0.0222103
-0.0237501
-0.0201427
-0.0190307
-0.0188632
-0.0195558
-0.0207415
-0.0221781
-0.023727
-0.020058
-0.0189546
-0.0187988
-0.0195039
-0.0207011
-0.0221475
-0.0237046
-0.0199889
-0.0188921
-0.0187451
-0.0194596
-0.0206659
-0.0221204
-0.0236845
-0.0199353
-0.0188433
-0.0187026
-0.0194241
-0.0206372
-0.022098
-0.0236676
-0.0231993
-0.0220671
-0.0216675
-0.0219169
-0.0226139
-0.0235981
-0.0247541
-0.0231517
-0.0220119
-0.0216222
-0.0218817
-0.0225872
-0.0235786
-0.0247403
-0.0230821
-0.0219478
-0.0215688
-0.0218397
-0.0225551
-0.0235547
-0.0247231
-0.0230141
-0.0218856
-0.021516
-0.021797
-0.0225218
-0.0235294
-0.0247046
-0.0229526
-0.0218295
-0.0214677
-0.0217571
-0.02249
-0.023505
-0.0246864
-0.0229004
-0.0217818
-0.021426
-0.0217222
-0.0224618
-0.0234829
-0.0246698
-0.0228586
-0.0217435
-0.0213923
-0.0216936
-0.0224384
-0.0234644
-0.0246557
-0.0251108
-0.0241187
-0.0236578
-0.0236906
-0.024097
-0.0247737
-0.0256339
-0.0250857
-0.0240848
-0.0236292
-0.0236672
-0.0240785
-0.0247595
-0.0256235
-0.025041
-0.0240427
-0.0235932
-0.0236378
-0.0240551
-0.0247416
-0.0256102
-0.0249946
-0.0239995
-0.0235556
-0.0236066
-0.0240302
-0.0247222
-0.0255958
-0.0249507
-0.0239589
-0.02352
-0.0235766
-0.0240058
-0.0247031
-0.0255813
-0.0249121
-0.0239232
-0.0234883
-0.0235497
-0.0239837
-0.0246856
-0.025568
-0.0248803
-0.0238938
-0.0234622
-0.0235272
-0.023965
-0.0246707
-0.0255565
-0.0265021
-0.0256569
-0.0251954
-0.0251091
-0.0253254
-0.0257783
-0.0264053
-0.0264892
-0.0256356
-0.0251771
-0.0250936
-0.0253126
-0.0257682
-0.0263976
-0.0264603
-0.0256078
-0.0251527
-0.025073
-0.0252958
-0.025755
-0.0263876
-0.0264289
-0.025578
-0.0251262
-0.0250506
-0.0252774
-0.0257404
-0.0263765
-0.0263979
-0.0255489
-0.0251002
-0.0250283
-0.025259
-0.0257257
-0.0263653
-0.0263697
-0.0255226
-0.0250766
-0.0250079
-0.0252421
-0.0257121
-0.0263548
-0.0263459
-0.0255004
-0.0250567
-0.0249906
-0.0252275
-0.0257003
-0.0263457
-0.0275427
-0.026824
-0.0263868
-0.0262362
-0.0263273
-0.0266177
-0.0270631
-0.0275357
-0.0268103
-0.0263749
-0.0262259
-0.0263184
-0.0266104
-0.0270574
-0.0275171
-0.0267918
-0.0263583
-0.0262116
-0.0263065
-0.0266008
-0.02705
-0.0274959
-0.0267713
-0.0263398
-0.0261956
-0.0262931
-0.02659
-0.0270417
-0.0274742
-0.0267506
-0.0263211
-0.0261793
-0.0262794
-0.0265789
-0.0270331
-0.0274539
-0.0267315
-0.0263037
-0.0261641
-0.0262666
-0.0265685
-0.0270249
-0.0274364
-0.026715
-0.0262887
-0.0261509
-0.0262555
-0.0265594
-0.0270178
-0.024706
-0.0265757
-0.0284145
-0.0302426
-0.0320816
-0.0339512
-0.024692
-0.0265674
-0.0284106
-0.0302425
-0.0320853
-0.0339595
-0.0246744
-0.0265567
-0.0284055
-0.0302422
-0.0320899
-0.0339697
-0.0246556
-0.0265451
-0.0283997
-0.0302418
-0.0320947
-0.0339802
-0.0246372
-0.0265335
-0.0283939
-0.0302412
-0.0320992
-0.0339902
-0.0246207
-0.026523
-0.0283886
-0.0302405
-0.0321032
-0.0339991
-0.0246068
-0.026514
-0.0283839
-0.0302399
-0.0321065
-0.0340065
-0.0253587
-0.0269409
-0.0285242
-0.0301065
-0.0316888
-0.0332689
-0.025347
-0.0269339
-0.0285208
-0.0301064
-0.031692
-0.0332759
-0.0253324
-0.0269248
-0.0285164
-0.0301061
-0.0316959
-0.0332843
-0.0253166
-0.0269149
-0.0285115
-0.0301057
-0.0316999
-0.0332931
-0.025301
-0.026905
-0.0285065
-0.0301051
-0.0317037
-0.0333015
-0.0252868
-0.0268959
-0.0285017
-0.0301045
-0.0317071
-0.0333091
-0.0252747
-0.026888
-0.0284977
-0.030104
-0.03171
-0.0333155
-0.0260067
-0.0273101
-0.0286369
-0.0299701
-0.0312954
-0.0325954
-0.0259974
-0.0273043
-0.0286341
-0.02997
-0.031298
-0.032601
-0.0259856
-0.0272968
-0.0286304
-0.0299697
-0.0313011
-0.0326077
-0.0259727
-0.0272887
-0.0286263
-0.0299693
-0.0313043
-0.0326147
-0.0259598
-0.0272804
-0.0286221
-0.0299688
-0.0313074
-0.0326217
-0.025948
-0.0272727
-0.0286181
-0.0299682
-0.0313103
-0.0326279
-0.0259378
-0.027266
-0.0286146
-0.0299677
-0.0313126
-0.0326333
-0.0266118
-0.0276602
-0.0287453
-0.0298412
-0.0309244
-0.0319689
-0.0266045
-0.0276556
-0.028743
-0.0298411
-0.0309264
-0.0319732
-0.0265953
-0.0276497
-0.02874
-0.0298408
-0.0309288
-0.0319784
-0.026585
-0.0276431
-0.0287367
-0.0298404
-0.0309313
-0.0319839
-0.0265747
-0.0276363
-0.0287332
-0.0298399
-0.0309338
-0.0319894
-0.026565
-0.02763
-0.0287299
-0.0298394
-0.0309361
-0.0319945
-0.0265567
-0.0276245
-0.028727
-0.029839
-0.030938
-0.0319988
-0.0271528
-0.0279775
-0.0288446
-0.0297246
-0.0305897
-0.0314104
-0.0271472
-0.0279739
-0.0288428
-0.0297244
-0.0305912
-0.0314136
-0.0271401
-0.0279693
-0.0288404
-0.0297242
-0.030593
-0.0314175
-0.0271322
-0.0279641
-0.0288377
-0.0297238
-0.0305949
-0.0314217
-0.027124
-0.0279587
-0.0288349
-0.0297234
-0.0305968
-0.031426
-0.0271163
-0.0279537
-0.0288322
-0.0297229
-0.0305986
-0.03143
-0.0271097
-0.0279492
-0.0288299
-0.0297226
-0.0306001
-0.0314334
-0.0276214
-0.0282554
-0.0289323
-0.0296225
-0.0302975
-0.0309277
-0.0276173
-0.0282527
-0.0289309
-0.0296223
-0.0302986
-0.03093
-0.0276119
-0.0282491
-0.028929
-0.0296221
-0.0302999
-0.0309329
-0.0276058
-0.0282451
-0.0289269
-0.0296218
-0.0303013
-0.030936
-0.0275995
-0.0282409
-0.0289247
-0.0296214
-0.0303027
-0.0309393
-0.0275935
-0.028237
-0.0289226
-0.0296211
-0.0303041
-0.0309423
-0.0275883
-0.0282335
-0.0289207
-0.0296207
-0.0303053
-0.030945
-0.0358644
-0.0378167
-0.0397633
-0.0415713
-0.0428987
-0.042978
-0.0423672
-0.0358788
-0.0378396
-0.0397984
-0.0416249
-0.0429842
-0.0431003
-0.0424635
-0.0358958
-0.0378657
-0.0398368
-0.04168
-0.0430631
-0.0432064
-0.0425763
-0.0359132
-0.0378916
-0.0398736
-0.0417306
-0.0431309
-0.043292
-0.0426716
-0.0359295
-0.0379155
-0.0399066
-0.0417745
-0.0431874
-0.0433607
-0.0427484
-0.0359439
-0.0379361
-0.0399345
-0.0418108
-0.0432327
-0.0434145
-0.0428083
-0.0359557
-0.0379529
-0.0399569
-0.0418393
-0.0432676
-0.0434551
-0.0428533
-0.0348341
-0.0363503
-0.0377434
-0.0388726
-0.0394934
-0.0392308
-0.0379915
-0.0348459
-0.0363682
-0.0377695
-0.0389097
-0.0395455
-0.0392972
-0.0380412
-0.0348597
-0.0363889
-0.0377989
-0.0389502
-0.0396
-0.0393658
-0.0381146
-0.034874
-0.0364098
-0.0378279
-0.0389891
-0.0396501
-0.0394266
-0.0381814
-0.0348877
-0.0364295
-0.0378547
-0.039024
-0.0396937
-0.0394783
-0.0382385
-0.0348998
-0.0364468
-0.0378778
-0.0390535
-0.0397299
-0.0395205
-0.0382851
-0.0349099
-0.0364611
-0.0378966
-0.0390771
-0.0397584
-0.0395534
-0.0383213
-0.0338425
-0.0349906
-0.0359636
-0.036645
-0.0368715
-0.0364323
-0.0352356
-0.0338516
-0.035004
-0.0359822
-0.0366697
-0.0369035
-0.036471
-0.0352622
-0.0338625
-0.0350198
-0.0360039
-0.0366985
-0.0369403
-0.0365154
-0.0353094
-0.0338739
-0.0350362
-0.0360262
-0.0367274
-0.0369763
-0.0365577
-0.0353551
-0.033885
-0.0350519
-0.0360472
-0.0367542
-0.037009
-0.0365957
-0.0353964
-0.033895
-0.035066
-0.0360657
-0.0367774
-0.037037
-0.0366278
-0.0354315
-0.0339034
-0.0350777
-0.036081
-0.0367964
-0.0370596
-0.0366536
-0.0354596
-0.0329407
-0.0337922
-0.0344569
-0.0348473
-0.0348582
-0.0343664
-0.0333358
-0.0329475
-0.0338018
-0.0344697
-0.0348635
-0.034878
-0.0343899
-0.0333491
-0.0329558
-0.0338136
-0.0344854
-0.0348835
-0.0349027
-0.0344187
-0.0333788
-0.0329646
-0.0338261
-0.034502
-0.0349045
-0.0349281
-0.0344479
-0.0334096
-0.0329733
-0.0338383
-0.0345181
-0.0349246
-0.0349521
-0.0344752
-0.0334389
-0.0329813
-0.0338494
-0.0345325
-0.0349425
-0.0349733
-0.0344992
-0.0334647
-0.0329881
-0.0338589
-0.0345447
-0.0349574
-0.0349908
-0.0345189
-0.0334861
-0.0321518
-0.0327702
-0.0332118
-0.0334135
-0.0333088
-0.0328247
-0.0319551
-0.0321567
-0.032777
-0.0332205
-0.033424
-0.0333212
-0.0328391
-0.0319614
-0.0321628
-0.0327855
-0.0332316
-0.0334378
-0.0333377
-0.032858
-0.0319801
-0.0321695
-0.0327949
-0.0332437
-0.0334529
-0.0333555
-0.032878
-0.0320007
-0.0321763
-0.0328042
-0.0332558
-0.0334676
-0.0333729
-0.0328973
-0.0320211
-0.0321825
-0.0328128
-0.0332668
-0.0334811
-0.0333886
-0.0329149
-0.0320399
-0.0321879
-0.0328202
-0.0332763
-0.0334926
-0.0334019
-0.0329297
-0.0320557
-0.0314804
-0.0319179
-0.0321983
-0.032277
-0.0321118
-0.0316585
-0.0309239
-0.0314839
-0.0319227
-0.0322042
-0.0322838
-0.0321197
-0.0316673
-0.0309263
-0.0314883
-0.0319288
-0.032212
-0.0322932
-0.0321307
-0.0316799
-0.0309384
-0.0314933
-0.0319356
-0.0322207
-0.0323039
-0.0321431
-0.0316934
-0.0309519
-0.0314984
-0.0319426
-0.0322296
-0.0323146
-0.0321555
-0.0317071
-0.0309661
-0.0315032
-0.0319491
-0.0322379
-0.0323246
-0.032167
-0.0317198
-0.0309794
-0.0315074
-0.0319549
-0.0322451
-0.0323333
-0.0321769
-0.0317307
-0.0309911
-0.0152975
-0.0149497
-0.0151816
-0.0166464
-0.0185708
-0.0206084
-0.02263
-0.0152673
-0.0149219
-0.0151572
-0.0166258
-0.0185539
-0.0205951
-0.0226199
-0.0152526
-0.0149084
-0.0151452
-0.0166156
-0.0185455
-0.0205884
-0.0226149
-0.0152527
-0.0149084
-0.0151453
-0.0166156
-0.0185456
-0.0205885
-0.0226149
-0.0152675
-0.0149221
-0.0151574
-0.016626
-0.0185541
-0.0205953
-0.0226202
-0.0152979
-0.01495
-0.015182
-0.0166468
-0.0185712
-0.0206088
-0.0226305
-0.0198963
-0.0188076
-0.0186713
-0.0193975
-0.0206155
-0.0220808
-0.0236546
-0.019871
-0.0187843
-0.0186507
-0.0193799
-0.020601
-0.0220693
-0.0236458
-0.0198585
-0.0187728
-0.0186405
-0.0193712
-0.0205938
-0.0220636
-0.0236414
-0.0198586
-0.0187729
-0.0186406
-0.0193713
-0.0205939
-0.0220637
-0.0236415
-0.0198712
-0.0187845
-0.0186509
-0.0193802
-0.0206012
-0.0220696
-0.0236461
-0.0198967
-0.018808
-0.0186717
-0.019398
-0.0206159
-0.0220813
-0.023655
-0.0228275
-0.0217148
-0.0213669
-0.0216719
-0.0224205
-0.0234501
-0.0246448
-0.022807
-0.0216959
-0.02135
-0.0216574
-0.0224084
-0.0234404
-0.0246373
-0.0227969
-0.0216865
-0.0213417
-0.0216502
-0.0224024
-0.0234356
-0.0246336
-0.022797
-0.0216866
-0.0213418
-0.0216503
-0.0224025
-0.0234357
-0.0246337
-0.0228073
-0.0216962
-0.0213503
-0.0216577
-0.0224087
-0.0234407
-0.0246376
-0.022828
-0.0217153
-0.0213674
-0.0216724
-0.022421
-0.0234506
-0.0246453
-0.0248561
-0.0238714
-0.0234422
-0.0235099
-0.0239506
-0.024659
-0.0255475
-0.02484
-0.0238564
-0.0234287
-0.0234982
-0.0239408
-0.0246511
-0.0255414
-0.024832
-0.0238489
-0.023422
-0.0234924
-0.023936
-0.0246472
-0.0255384
-0.0248321
-0.0238491
-0.0234221
-0.0234926
-0.0239361
-0.0246473
-0.0255385
-0.0248403
-0.0238567
-0.0234291
-0.0234986
-0.0239412
-0.0246515
-0.0255418
-0.0248567
-0.023872
-0.0234427
-0.0235105
-0.0239512
-0.0246596
-0.0255481
-0.0263276
-0.0254833
-0.0250412
-0.0249771
-0.0252162
-0.0256911
-0.0263385
-0.0263151
-0.0254717
-0.0250308
-0.024968
-0.0252084
-0.0256848
-0.0263335
-0.0263089
-0.0254659
-0.0250255
-0.0249634
-0.0252046
-0.0256816
-0.0263311
-0.0263091
-0.025466
-0.0250256
-0.0249635
-0.0252047
-0.0256818
-0.0263312
-0.0263155
-0.025472
-0.0250311
-0.0249684
-0.0252088
-0.0256851
-0.0263339
-0.0263282
-0.0254839
-0.0250419
-0.0249777
-0.0252168
-0.0256917
-0.0263391
-0.0274226
-0.026702
-0.026277
-0.0261406
-0.0262467
-0.0265522
-0.0270121
-0.0274132
-0.0266932
-0.0262689
-0.0261335
-0.0262406
-0.0265473
-0.0270083
-0.0274085
-0.0266888
-0.0262649
-0.02613
-0.0262376
-0.0265448
-0.0270063
-0.0274086
-0.0266889
-0.026265
-0.0261301
-0.0262378
-0.0265449
-0.0270065
-0.0274136
-0.0266936
-0.0262693
-0.0261339
-0.026241
-0.0265476
-0.0270086
-0.0274232
-0.0267027
-0.0262776
-0.0261412
-0.0262473
-0.0265528
-0.0270128
-0.0359647
-0.0379655
-0.0399735
-0.0418603
-0.0432928
-0.0434842
-0.0428852
-0.0359707
-0.037974
-0.0399846
-0.041874
-0.0433092
-0.0435029
-0.0429057
-0.0359738
-0.0379783
-0.0399902
-0.0418809
-0.0433174
-0.0435122
-0.0429158
-0.035974
-0.0379785
-0.0399904
-0.0418811
-0.0433176
-0.0435124
-0.042916
-0.0359712
-0.0379745
-0.0399851
-0.0418746
-0.0433098
-0.0435035
-0.0429063
-0.0359654
-0.0379664
-0.0399744
-0.0418612
-0.0432938
-0.0434851
-0.0428862
-0.0349177
-0.0364719
-0.0379108
-0.0390948
-0.0397794
-0.0395775
-0.0383477
-0.034923
-0.0364793
-0.0379203
-0.0391065
-0.0397933
-0.0395932
-0.0383649
-0.0349257
-0.036483
-0.0379251
-0.0391124
-0.0398002
-0.0396011
-0.0383734
-0.0349259
-0.0364832
-0.0379253
-0.0391126
-0.0398004
-0.0396013
-0.0383736
-0.0349234
-0.0364798
-0.0379208
-0.039107
-0.0397938
-0.0395938
-0.0383654
-0.0349184
-0.0364727
-0.0379116
-0.0390956
-0.0397803
-0.0395784
-0.0383486
-0.0339099
-0.0350868
-0.0360927
-0.0368108
-0.0370766
-0.0366729
-0.0354806
-0.0339143
-0.0350929
-0.0361006
-0.0368205
-0.037088
-0.0366857
-0.0354946
-0.0339167
-0.0350961
-0.0361047
-0.0368254
-0.0370937
-0.0366922
-0.0355016
-0.0339168
-0.0350962
-0.0361048
-0.0368256
-0.0370939
-0.0366924
-0.0355017
-0.0339148
-0.0350934
-0.0361011
-0.036821
-0.0370885
-0.0366862
-0.0354951
-0.0339106
-0.0350875
-0.0360935
-0.0368116
-0.0370774
-0.0366737
-0.0354815
-0.0329934
-0.0338662
-0.0345541
-0.0349688
-0.0350042
-0.034534
-0.0335024
-0.0329971
-0.0338712
-0.0345605
-0.0349766
-0.0350132
-0.0345441
-0.0335133
-0.032999
-0.0338738
-0.0345638
-0.0349806
-0.0350179
-0.0345493
-0.0335189
-0.0329992
-0.033874
-0.0345639
-0.0349807
-0.035018
-0.0345494
-0.033519
-0.0329975
-0.0338716
-0.0345609
-0.034977
-0.0350137
-0.0345446
-0.0335138
-0.0329941
-0.0338668
-0.0345547
-0.0349695
-0.0350049
-0.0345347
-0.0335031
-0.0321922
-0.032826
-0.0332837
-0.0335015
-0.0334122
-0.0329413
-0.0320681
-0.0321951
-0.0328301
-0.0332888
-0.0335076
-0.0334193
-0.0329491
-0.0320765
-0.0321967
-0.0328321
-0.0332914
-0.0335108
-0.0334229
-0.0329531
-0.0320808
-0.0321968
-0.0328323
-0.0332915
-0.0335109
-0.0334231
-0.0329533
-0.032081
-0.0321954
-0.0328304
-0.0332891
-0.033508
-0.0334197
-0.0329495
-0.0320769
-0.0321927
-0.0328266
-0.0332842
-0.0335021
-0.0334128
-0.0329419
-0.0320687
-0.0315107
-0.0319594
-0.0322508
-0.0323401
-0.0321847
-0.0317394
-0.0310003
-0.0315131
-0.0319626
-0.0322548
-0.0323448
-0.0321902
-0.0317454
-0.0310066
-0.0315143
-0.0319642
-0.0322569
-0.0323473
-0.032193
-0.0317484
-0.0310099
-0.0315144
-0.0319643
-0.032257
-0.0323474
-0.0321931
-0.0317486
-0.03101
-0.0315134
-0.0319629
-0.0322551
-0.0323451
-0.0321905
-0.0317457
-0.031007
-0.0315112
-0.0319599
-0.0322513
-0.0323406
-0.0321853
-0.0317399
-0.0310008
-0.0153452
-0.0149933
-0.0152198
-0.0166785
-0.0185968
-0.0206289
-0.0226457
-0.0154119
-0.0150538
-0.0152719
-0.0167215
-0.0186312
-0.0206555
-0.0226655
-0.0155005
-0.0151335
-0.0153393
-0.0167761
-0.0186738
-0.0206879
-0.0226893
-0.0156141
-0.0152346
-0.0154229
-0.0168417
-0.0187239
-0.020725
-0.022716
-0.0157546
-0.0153591
-0.0155221
-0.0169167
-0.0187791
-0.0207649
-0.0227441
-0.0159209
-0.0155095
-0.0156359
-0.0169975
-0.0188361
-0.0208045
-0.022771
-0.0160738
-0.0156761
-0.0157551
-0.0170742
-0.0188869
-0.0208382
-0.022793
-0.0199359
-0.0188438
-0.0187032
-0.0194247
-0.0206378
-0.0220986
-0.0236683
-0.0199896
-0.0188928
-0.0187459
-0.0194604
-0.0206666
-0.0221212
-0.0236853
-0.0200589
-0.0189554
-0.0187997
-0.0195047
-0.020702
-0.0221484
-0.0237056
-0.0201436
-0.0190317
-0.0188642
-0.0195568
-0.0207425
-0.0221791
-0.023728
-0.0202423
-0.0191204
-0.0189375
-0.0196142
-0.0207861
-0.0222114
-0.0237512
-0.0203493
-0.0192187
-0.0190161
-0.0196733
-0.0208295
-0.0222426
-0.023773
-0.020437
-0.019312
-0.0190891
-0.0197259
-0.0208669
-0.0222687
-0.0237908
-0.0228593
-0.0217441
-0.0213929
-0.0216943
-0.0224391
-0.0234651
-0.0246564
-0.0229012
-0.0217826
-0.0214268
-0.021723
-0.0224626
-0.0234837
-0.0246707
-0.0229536
-0.0218305
-0.0214686
-0.0217581
-0.022491
-0.0235059
-0.0246874
-0.0230151
-0.0218867
-0.0215171
-0.0217981
-0.0225229
-0.0235305
-0.0247057
-0.0230832
-0.0219489
-0.02157
-0.0218408
-0.0225563
-0.0235559
-0.0247243
-0.0231528