/*--------------------------------*- C++ -*----------------------------------*\
  =========                 |
  \\      /  F ield         | OpenFOAM: The Open Source CFD Toolbox
   \\    /   O peration     | Website:  https://openfoam.org
    \\  /    A nd           | Version:  7
     \\/     M anipulation  |
\*---------------------------------------------------------------------------*/
FoamFile
{
    version     2.0;
    format      ascii;
    class       volVectorField;
    location    "0.75";
    object      U;
}
// * * * * * * * * * * * * * * * * * * * * * * * * * * * * * * * * * * * * * //

dimensions      [0 1 -1 0 0 0 0];

internalField   nonuniform List<vector> 
7784
(
(0.605179 -9.51286e-05 -0.00121291)
(0.604089 -8.17876e-05 -0.00102315)
(0.603905 -3.27307e-05 -0.000406278)
(0.604565 -1.21991e-05 -0.000187868)
(0.604851 -5.70894e-06 -0.000102504)
(0.605001 -2.99834e-06 -6.01232e-05)
(0.605095 -1.65576e-06 -3.67921e-05)
(0.605193 -0.000125703 -0.0011647)
(0.604145 -0.000107101 -0.000981952)
(0.603967 -4.85325e-05 -0.000394745)
(0.604588 -2.14784e-05 -0.000185526)
(0.604859 -1.11977e-05 -0.000101815)
(0.605005 -6.27478e-06 -5.98438e-05)
(0.605097 -3.6315e-06 -3.66683e-05)
(0.605202 -6.57606e-05 -0.00114742)
(0.604167 -5.53356e-05 -0.000967932)
(0.603991 -3.40297e-05 -0.000388867)
(0.604602 -1.99253e-05 -0.000183371)
(0.604867 -1.19989e-05 -0.000100928)
(0.605009 -7.34944e-06 -5.94519e-05)
(0.605099 -4.53776e-06 -3.64864e-05)
(0.605206 -3.83485e-05 -0.00114127)
(0.604177 -3.30605e-05 -0.000962906)
(0.604002 -2.39228e-05 -0.000386054)
(0.60461 -1.61918e-05 -0.000181983)
(0.604872 -1.0765e-05 -0.000100244)
(0.605013 -7.10016e-06 -5.91072e-05)
(0.605101 -4.63502e-06 -3.63089e-05)
(0.605208 -2.46003e-05 -0.00113863)
(0.604182 -2.17414e-05 -0.000960693)
(0.604008 -1.70665e-05 -0.000384614)
(0.604615 -1.2571e-05 -0.000181146)
(0.604876 -8.96337e-06 -9.97711e-05)
(0.605015 -6.2528e-06 -5.8841e-05)
(0.605103 -4.26437e-06 -3.61588e-05)
(0.605209 -1.62806e-05 -0.00113739)
(0.604185 -1.46832e-05 -0.000959631)
(0.604012 -1.21258e-05 -0.000383848)
(0.604618 -9.44872e-06 -0.000180644)
(0.604879 -7.08286e-06 -9.94557e-05)
(0.605017 -5.15185e-06 -5.8647e-05)
(0.605105 -3.63408e-06 -3.60412e-05)
(0.60521 -1.08101e-05 -0.00113677)
(0.604186 -9.90052e-06 -0.000959087)
(0.604013 -8.44511e-06 -0.000383424)
(0.60462 -6.83028e-06 -0.000180341)
(0.60488 -5.30234e-06 -9.92498e-05)
(0.605019 -3.97596e-06 -5.85113e-05)
(0.605106 -2.87613e-06 -3.59541e-05)
(0.0918423 -5.48591e-05 -0.00210954)
(0.091127 -4.71655e-05 -0.00176269)
(0.0909305 -2.45277e-05 -0.000832257)
(0.0911782 -1.13755e-05 -0.000449714)
(0.091353 -5.77826e-06 -0.000269883)
(0.0914749 -3.12868e-06 -0.000168713)
(0.0915608 -1.76155e-06 -0.00010738)
(0.0918509 -7.97135e-05 -0.00203186)
(0.0911544 -6.80902e-05 -0.00169767)
(0.0909621 -3.87125e-05 -0.00081128)
(0.0911948 -2.02766e-05 -0.000444273)
(0.0913605 -1.12727e-05 -0.00026804)
(0.0914788 -6.51084e-06 -0.000167978)
(0.091563 -3.84524e-06 -0.000107072)
(0.0918571 -5.34755e-05 -0.00200035)
(0.0911695 -4.55118e-05 -0.00167233)
(0.0909792 -3.09018e-05 -0.000799492)
(0.0912064 -1.95206e-05 -0.000439357)
(0.0913674 -1.22583e-05 -0.000265839)
(0.0914829 -7.70948e-06 -0.000166953)
(0.0915656 -4.84519e-06 -0.00010658)
(0.0918606 -3.59309e-05 -0.00198739)
(0.0911775 -3.12206e-05 -0.00166175)
(0.0909886 -2.35046e-05 -0.000793209)
(0.0912138 -1.65082e-05 -0.000436018)
(0.0913727 -1.12633e-05 -0.000264089)
(0.0914864 -7.56243e-06 -0.00016603)
(0.091568 -4.99742e-06 -0.000106089)
(0.0918627 -2.47203e-05 -0.00198119)
(0.091182 -2.19488e-05 -0.00165656)
(0.090994 -1.75633e-05 -0.000789704)
(0.0912187 -1.31995e-05 -0.00043388)
(0.0913765 -9.55953e-06 -0.000262829)
(0.0914892 -6.74522e-06 -0.000165297)
(0.09157 -4.6378e-06 -0.000105666)
(0.0918639 -1.70504e-05 -0.00197804)
(0.0911847 -1.54127e-05 -0.00165384)
(0.0909973 -1.28485e-05 -0.000787706)
(0.0912219 -1.01217e-05 -0.000432533)
(0.0913791 -7.65847e-06 -0.00026196)
(0.0914914 -5.61156e-06 -0.00016475)
(0.0915717 -3.97957e-06 -0.000105329)
(0.0918646 -1.16035e-05 -0.00197636)
(0.0911862 -1.06344e-05 -0.00165236)
(0.0909993 -9.11189e-06 -0.000786544)
(0.0912239 -7.41403e-06 -0.00043169)
(0.091381 -5.78844e-06 -0.000261377)
(0.0914929 -4.36108e-06 -0.000164361)
(0.091573 -3.16588e-06 -0.000105076)
(0.0106609 -2.15818e-05 -0.0015531)
(0.0102114 -2.00799e-05 -0.00130694)
(0.0100215 -1.35542e-05 -0.000839019)
(0.010058 -7.83792e-06 -0.00054933)
(0.0101263 -4.52811e-06 -0.000366905)
(0.0101918 -2.66531e-06 -0.000246411)
(0.0102457 -1.5901e-06 -0.000164199)
(0.0106628 -3.71543e-05 -0.00151237)
(0.0102189 -3.36278e-05 -0.00127352)
(0.0100327 -2.35125e-05 -0.000823819)
(0.0100664 -1.45673e-05 -0.000543575)
(0.0101313 -8.93899e-06 -0.000364545)
(0.0101948 -5.51603e-06 -0.000245395)
(0.0102476 -3.41269e-06 -0.00016375)
(0.0106656 -3.3248e-05 -0.00148982)
(0.0102259 -2.92108e-05 -0.00125524)
(0.0100414 -2.18058e-05 -0.000813443)
(0.0100734 -1.49774e-05 -0.000538319)
(0.0101361 -9.99079e-06 -0.00036189)
(0.010198 -6.57273e-06 -0.000244049)
(0.0102498 -4.26962e-06 -0.000163062)
(0.0106677 -2.60044e-05 -0.00147783)
(0.0102307 -2.30225e-05 -0.00124532)
(0.0100473 -1.81759e-05 -0.000806926)
(0.0100785 -1.33893e-05 -0.000534458)
(0.01014 -9.49844e-06 -0.000359684)
(0.0102008 -6.57594e-06 -0.000242807)
(0.0102517 -4.4486e-06 -0.000162367)
(0.010669 -1.95044e-05 -0.0014711)
(0.0102338 -1.75246e-05 -0.00123961)
(0.0100511 -1.44161e-05 -0.000802831)
(0.0100822 -1.11586e-05 -0.000531779)
(0.010143 -8.29232e-06 -0.000358009)
(0.0102031 -5.97623e-06 -0.000241785)
(0.0102535 -4.17854e-06 -0.000161754)
(0.0106699 -1.42355e-05 -0.00146726)
(0.0102357 -1.29659e-05 -0.00123627)
(0.0100536 -1.09885e-05 -0.000800274)
(0.0100847 -8.81841e-06 -0.000529976)
(0.0101452 -6.78801e-06 -0.000356797)
(0.0102049 -5.04788e-06 -0.000240997)
(0.0102549 -3.62354e-06 -0.000161255)
(0.0106705 -1.00525e-05 -0.00146503)
(0.010237 -9.25609e-06 -0.00123428)
(0.0100552 -8.01228e-06 -0.000798683)
(0.0100864 -6.59807e-06 -0.000528789)
(0.0101468 -5.21224e-06 -0.000355955)
(0.0102063 -3.96863e-06 -0.000240421)
(0.010256 -2.907e-06 -0.000160873)
(0.605153 -9.42332e-07 -2.242e-05)
(0.605188 -5.20915e-07 -1.2374e-05)
(0.605204 -2.3539e-07 -4.36128e-06)
(0.605205 -2.35889e-09 2.99159e-06)
(0.605191 2.38049e-07 1.07926e-05)
(0.60516 5.52561e-07 2.03348e-05)
(0.605154 -2.12852e-06 -2.23586e-05)
(0.605188 -1.19562e-06 -1.23433e-05)
(0.605205 -5.424e-07 -4.35046e-06)
(0.605206 -5.6007e-10 2.98613e-06)
(0.605192 5.56492e-07 1.07707e-05)
(0.605161 1.26682e-06 2.02914e-05)
(0.605156 -2.77465e-06 -2.227e-05)
(0.605189 -1.59862e-06 -1.23004e-05)
(0.605206 -7.34129e-07 -4.33364e-06)
(0.605207 -1.05572e-10 2.98374e-06)
(0.605193 7.4836e-07 1.07476e-05)
(0.605162 1.66473e-06 2.02366e-05)
(0.605157 -2.94862e-06 -2.21774e-05)
(0.60519 -1.74489e-06 -1.22536e-05)
(0.605206 -8.17045e-07 -4.31463e-06)
(0.605207 -1.14489e-08 2.98161e-06)
(0.605194 8.01899e-07 1.07229e-05)
(0.605163 1.75605e-06 2.01788e-05)
(0.605159 -2.80327e-06 -2.20935e-05)
(0.605192 -1.69875e-06 -1.22091e-05)
(0.605207 -8.11453e-07 -4.29587e-06)
(0.605208 -2.63045e-08 2.97989e-06)
(0.605194 7.59396e-07 1.06997e-05)
(0.605164 1.64806e-06 2.01264e-05)
(0.60516 -2.45211e-06 -2.20239e-05)
(0.605192 -1.51551e-06 -1.21705e-05)
(0.605208 -7.37328e-07 -4.27915e-06)
(0.605209 -3.78072e-08 2.97865e-06)
(0.605195 6.57282e-07 1.068e-05)
(0.605165 1.42067e-06 2.0083e-05)
(0.605161 -1.97988e-06 -2.19699e-05)
(0.605193 -1.24294e-06 -1.21396e-05)
(0.605209 -6.14204e-07 -4.26539e-06)
(0.60521 -4.2087e-08 2.97792e-06)
(0.605196 5.23603e-07 1.06645e-05)
(0.605166 1.13091e-06 2.00498e-05)
(0.0916184 -1.01162e-06 -6.68099e-05)
(0.0916539 -5.61003e-07 -3.70935e-05)
(0.0916711 -2.53121e-07 -1.27165e-05)
(0.0916719 -3.80426e-10 9.93996e-06)
(0.0916564 2.62431e-07 3.39322e-05)
(0.0916229 6.08638e-07 6.2764e-05)
(0.0916199 -2.27935e-06 -6.66697e-05)
(0.0916549 -1.28677e-06 -3.70279e-05)
(0.0916719 -5.82259e-07 -1.26908e-05)
(0.0916727 7.37859e-09 9.93723e-06)
(0.0916573 6.16074e-07 3.3899e-05)
(0.091624 1.39078e-06 6.26827e-05)
(0.0916215 -2.99511e-06 -6.64271e-05)
(0.0916561 -1.73426e-06 -3.69096e-05)
(0.0916729 -7.93016e-07 -1.26441e-05)
(0.0916736 1.39751e-08 9.93095e-06)
(0.0916583 8.38518e-07 3.38352e-05)
(0.0916254 1.84088e-06 6.25288e-05)
(0.0916232 -3.20397e-06 -6.61653e-05)
(0.0916573 -1.90228e-06 -3.67758e-05)
(0.0916739 -8.86008e-07 -1.25896e-05)
(0.0916745 3.25155e-09 9.92383e-06)
(0.0916593 9.02329e-07 3.37621e-05)
(0.0916267 1.95091e-06 6.23602e-05)
(0.0916247 -3.06447e-06 -6.59246e-05)
(0.0916585 -1.86009e-06 -3.66467e-05)
(0.0916748 -8.83219e-07 -1.25355e-05)
(0.0916754 -1.34359e-08 9.91761e-06)
(0.0916603 8.58038e-07 3.36924e-05)
(0.0916278 1.83944e-06 6.22052e-05)
(0.091626 -2.69406e-06 -6.57223e-05)
(0.0916595 -1.66581e-06 -3.6534e-05)
(0.0916757 -8.05142e-07 -1.24868e-05)
(0.0916763 -2.7755e-08 9.91292e-06)
(0.0916612 7.45658e-07 3.36327e-05)
(0.0916289 1.59239e-06 6.20761e-05)
(0.091627 -2.18371e-06 -6.55645e-05)
(0.0916604 -1.37037e-06 -3.64431e-05)
(0.0916765 -6.72454e-07 -1.24465e-05)
(0.091677 -3.49762e-08 9.90994e-06)
(0.0916619 5.96007e-07 3.35857e-05)
(0.0916297 1.27199e-06 6.19762e-05)
(0.0102854 -9.46515e-07 -0.00010499)
(0.0103112 -5.34906e-07 -5.90996e-05)
(0.010324 -2.41474e-07 -2.017e-05)
(0.0103244 4.84279e-09 1.64747e-05)
(0.0103124 2.60093e-07 5.49753e-05)
(0.0102873 5.85953e-07 9.99193e-05)
(0.0102867 -2.08486e-06 -0.000104784)
(0.0103122 -1.19782e-06 -5.90034e-05)
(0.0103249 -5.45214e-07 -2.01307e-05)
(0.0103253 1.08883e-08 1.64753e-05)
(0.0103133 5.82433e-07 5.49327e-05)
(0.0102885 1.28952e-06 9.98013e-05)
(0.0102882 -2.70109e-06 -0.000104428)
(0.0103133 -1.58788e-06 -5.88255e-05)
(0.0103258 -7.32853e-07 -2.00591e-05)
(0.0103261 1.02757e-08 1.64662e-05)
(0.0103143 7.65832e-07 5.48359e-05)
(0.0102897 1.66253e-06 9.95719e-05)
(0.0102896 -2.9015e-06 -0.000104044)
(0.0103144 -1.74341e-06 -5.8624e-05)
(0.0103267 -8.19148e-07 -1.9976e-05)
(0.010327 -1.87239e-09 1.64554e-05)
(0.0103152 8.21116e-07 5.47253e-05)
(0.0102908 1.76315e-06 9.9322e-05)
(0.010291 -2.7964e-06 -0.000103686)
(0.0103155 -1.71314e-06 -5.8428e-05)
(0.0103276 -8.19589e-07 -1.98928e-05)
(0.0103278 -1.75476e-08 1.6446e-05)
(0.0103161 7.83737e-07 5.46195e-05)
(0.0102918 1.67339e-06 9.90903e-05)
(0.0102921 -2.47651e-06 -0.00010338)
(0.0103164 -1.54239e-06 -5.82551e-05)
(0.0103284 -7.5019e-07 -1.98174e-05)
(0.0103286 -3.01562e-08 1.64391e-05)
(0.0103169 6.84604e-07 5.45279e-05)
(0.0102927 1.45885e-06 9.88944e-05)
(0.010293 -2.01981e-06 -0.000103138)
(0.0103172 -1.27474e-06 -5.81144e-05)
(0.0103291 -6.28841e-07 -1.97545e-05)
(0.0103293 -3.591e-08 1.64345e-05)
(0.0103176 5.50014e-07 5.44551e-05)
(0.0102935 1.17256e-06 9.87411e-05)
(0.605106 1.05272e-06 3.36903e-05)
(0.605018 1.97336e-06 5.49553e-05)
(0.604878 3.83597e-06 9.31877e-05)
(0.604621 8.28685e-06 0.000169844)
(0.60403 2.29118e-05 0.000355763)
(0.603965 5.97338e-05 0.00088424)
(0.604949 6.43262e-05 0.00122135)
(0.605107 2.34374e-06 3.36098e-05)
(0.605021 4.19306e-06 5.47872e-05)
(0.604884 7.63244e-06 9.27774e-05)
(0.604638 1.47969e-05 0.000168418)
(0.604076 3.40866e-05 0.000348127)
(0.604001 7.76728e-05 0.00085528)
(0.604953 8.53786e-05 0.00119079)
(0.605109 2.95903e-06 3.34932e-05)
(0.605024 4.96906e-06 5.45317e-05)
(0.604889 8.26973e-06 9.21867e-05)
(0.604648 1.38907e-05 0.000166957)
(0.604093 2.39388e-05 0.000344099)
(0.604016 3.93412e-05 0.000845506)
(0.604957 4.52979e-05 0.00117955)
(0.605111 3.01391e-06 3.33766e-05)
(0.605027 4.79694e-06 5.43005e-05)
(0.604893 7.41309e-06 9.17213e-05)
(0.604654 1.12672e-05 0.000166005)
(0.604101 1.67525e-05 0.000342167)
(0.604023 2.326e-05 0.000842026)
(0.60496 2.6694e-05 0.00117542)
(0.605112 2.75289e-06 3.32774e-05)
(0.605029 4.20551e-06 5.41203e-05)
(0.604895 6.1521e-06 9.1398e-05)
(0.604657 8.72153e-06 0.000165431)
(0.604105 1.19127e-05 0.000341177)
(0.604026 1.52288e-05 0.000840495)
(0.604961 1.71919e-05 0.00117361)
(0.605113 2.32589e-06 3.31995e-05)
(0.60503 3.44588e-06 5.39886e-05)
(0.604897 4.8423e-06 9.11815e-05)
(0.604659 6.53567e-06 0.000165084)
(0.604108 8.44198e-06 0.000340647)
(0.604028 1.02577e-05 0.000839759)
(0.604962 1.1389e-05 0.00117275)
(0.605114 1.82512e-06 3.3142e-05)
(0.605031 2.64454e-06 5.38965e-05)
(0.604899 3.61084e-06 9.10399e-05)
(0.604661 4.71052e-06 0.000164875)
(0.604109 5.86545e-06 0.000340353)
(0.604029 6.90318e-06 0.00083938)
(0.604963 7.55992e-06 0.00117232)
(0.0915677 1.15861e-06 0.000101663)
(0.0914848 2.15296e-06 0.000159925)
(0.0913663 4.10038e-06 0.000255737)
(0.0911976 8.2687e-06 0.000426772)
(0.090954 1.83612e-05 0.000778319)
(0.0910561 3.62893e-05 0.00160739)
(0.0917588 3.95642e-05 0.00215307)
(0.0915694 2.5528e-06 0.000101477)
(0.0914877 4.50055e-06 0.000159467)
(0.091372 7.99099e-06 0.000254522)
(0.0912103 1.46465e-05 0.000422995)
(0.0909787 2.85936e-05 0.000763164)
(0.0910746 5.14069e-05 0.00155949)
(0.0917619 5.70987e-05 0.00210043)
(0.0915714 3.23387e-06 0.000101149)
(0.0914908 5.34013e-06 0.000158763)
(0.0913771 8.66236e-06 0.00025297)
(0.0912189 1.39654e-05 0.000419456)
(0.0909913 2.23143e-05 0.000754606)
(0.0910848 3.30238e-05 0.00154111)
(0.0917653 3.77621e-05 0.00207886)
(0.0915732 3.31496e-06 0.000100815)
(0.0914934 5.20887e-06 0.000158119)
(0.0913809 7.90537e-06 0.000251731)
(0.0912243 1.17031e-05 0.000417071)
(0.090998 1.67483e-05 0.00075011)
(0.0910902 2.2244e-05 0.00153355)
(0.0917674 2.52797e-05 0.00206986)
(0.0915747 3.04776e-06 0.000100527)
(0.0914955 4.61224e-06 0.000157609)
(0.0913836 6.66408e-06 0.000250843)
(0.0912278 9.29124e-06 0.000415555)
(0.0910019 1.24163e-05 0.000747622)
(0.0910933 1.55124e-05 0.00152987)
(0.0917687 1.7373e-05 0.00206553)
(0.0915759 2.58914e-06 0.000100298)
(0.091497 3.80874e-06 0.000157228)
(0.0913856 5.30586e-06 0.000250231)
(0.09123 7.08395e-06 0.000414602)
(0.0910042 9.03287e-06 0.000746208)
(0.0910952 1.08413e-05 0.00152796)
(0.0917695 1.19692e-05 0.00206331)
(0.0915769 2.04043e-06 0.000100127)
(0.0914982 2.9398e-06 0.000156958)
(0.0913869 3.98852e-06 0.000249822)
(0.0912315 5.165e-06 0.000414007)
(0.0910056 6.37996e-06 0.000745388)
(0.0910962 7.45665e-06 0.00152691)
(0.09177 8.13551e-06 0.00206213)
(0.0102483 1.07322e-06 0.00015747)
(0.0101948 1.87739e-06 0.000236984)
(0.0101288 3.27474e-06 0.000353386)
(0.0100581 5.77667e-06 0.000530172)
(0.0100116 1.01977e-05 0.00080997)
(0.0101649 1.52386e-05 0.00126618)
(0.0106191 1.47294e-05 0.00159688)
(0.0102499 2.29698e-06 0.000157185)
(0.0101972 3.864e-06 0.000236297)
(0.0101327 6.4079e-06 0.000351709)
(0.0100647 1.06057e-05 0.000525932)
(0.0100204 1.73806e-05 0.000798385)
(0.0101694 2.49909e-05 0.00123994)
(0.0106189 2.56469e-05 0.0015665)
(0.0102515 2.8592e-06 0.000156714)
(0.0101996 4.57087e-06 0.000235347)
(0.0101363 7.08495e-06 0.000349794)
(0.0100699 1.07378e-05 0.000522079)
(0.0100268 1.5732e-05 0.000790677)
(0.0101739 2.10356e-05 0.00122624)
(0.0106204 2.32552e-05 0.00155015)
(0.010253 2.95145e-06 0.000156236)
(0.0102017 4.53483e-06 0.000234471)
(0.0101391 6.67563e-06 0.000348213)
(0.0100736 9.50024e-06 0.000519286)
(0.010031 1.29467e-05 0.000785936)
(0.0101771 1.63588e-05 0.00121902)
(0.0106216 1.82453e-05 0.00154158)
(0.0102544 2.74332e-06 0.000155816)
(0.0102034 4.08688e-06 0.000233753)
(0.0101413 5.78349e-06 0.000347021)
(0.0100762 7.85719e-06 0.000517365)
(0.0100337 1.01881e-05 0.00078299)
(0.0101792 1.23693e-05 0.00121491)
(0.0106225 1.36872e-05 0.00153679)
(0.0102555 2.35429e-06 0.000155475)
(0.0102047 3.42475e-06 0.000233201)
(0.0101429 4.70282e-06 0.000346162)
(0.010078 6.17192e-06 0.00051608)
(0.0100355 7.72266e-06 0.000781163)
(0.0101806 9.11298e-06 0.00121253)
(0.0106231 9.9823e-06 0.00153406)
(0.0102563 1.87077e-06 0.000155217)
(0.0102058 2.67372e-06 0.0002328)
(0.010144 3.59078e-06 0.000345568)
(0.0100792 4.59584e-06 0.000515237)
(0.0100366 5.60809e-06 0.000780032)
(0.0101815 6.48651e-06 0.00121111)
(0.0106235 7.04123e-06 0.00153248)
(0.60521 -6.90557e-06 -0.00113645)
(0.604187 -6.39173e-06 -0.000958795)
(0.604015 -5.56357e-06 -0.000383185)
(0.604622 -4.60896e-06 -0.00018016)
(0.604881 -3.66312e-06 -9.91194e-05)
(0.60502 -2.80531e-06 -5.84209e-05)
(0.605107 -2.06587e-06 -3.58936e-05)
(0.60521 -3.85815e-06 -0.00113628)
(0.604187 -3.59447e-06 -0.000958642)
(0.604015 -3.16612e-06 -0.000383055)
(0.604622 -2.66085e-06 -0.000180057)
(0.604882 -2.14562e-06 -9.90425e-05)
(0.60502 -1.66511e-06 -5.83659e-05)
(0.605107 -1.24032e-06 -3.58556e-05)
(0.60521 -1.24257e-06 -0.00113621)
(0.604188 -1.16118e-06 -0.000958575)
(0.604016 -1.02848e-06 -0.000382997)
(0.604623 -8.70214e-07 -0.00018001)
(0.604882 -7.06622e-07 -9.90069e-05)
(0.605021 -5.51968e-07 -5.83398e-05)
(0.605108 -4.1354e-07 -3.58374e-05)
(0.60521 1.24111e-06 -0.00113621)
(0.604188 1.15979e-06 -0.000958575)
(0.604016 1.0273e-06 -0.000382997)
(0.604623 8.69101e-07 -0.00018001)
(0.604882 7.05535e-07 -9.90069e-05)
(0.605021 5.50877e-07 -5.83398e-05)
(0.605108 4.12423e-07 -3.58374e-05)
(0.60521 3.85668e-06 -0.00113628)
(0.604187 3.59296e-06 -0.000958642)
(0.604015 3.1649e-06 -0.000383055)
(0.604622 2.65967e-06 -0.000180057)
(0.604882 2.1445e-06 -9.90425e-05)
(0.60502 1.66401e-06 -5.83658e-05)
(0.605107 1.23921e-06 -3.58556e-05)
(0.60521 6.90398e-06 -0.00113645)
(0.604187 6.39017e-06 -0.000958795)
(0.604015 5.56223e-06 -0.000383185)
(0.604622 4.60773e-06 -0.00018016)
(0.604881 3.66194e-06 -9.91192e-05)
(0.60502 2.80418e-06 -5.84209e-05)
(0.605107 2.06476e-06 -3.58935e-05)
(0.091865 -7.51904e-06 -0.00197544)
(0.0911871 -6.95762e-06 -0.00165154)
(0.0910005 -6.06915e-06 -0.000785866)
(0.0912252 -5.04535e-06 -0.000431172)
(0.0913822 -4.02449e-06 -0.000261001)
(0.091494 -3.09184e-06 -0.000164098)
(0.0915739 -2.28228e-06 -0.000104898)
(0.0918652 -4.23421e-06 -0.00197494)
(0.0911877 -3.94162e-06 -0.00165109)
(0.0910012 -3.47557e-06 -0.000785488)
(0.091226 -2.92734e-06 -0.000430873)
(0.0913829 -2.3664e-06 -0.000260777)
(0.0914947 -1.84063e-06 -0.000163936)
(0.0915745 -1.37334e-06 -0.000104786)
(0.0918653 -1.3684e-06 -0.00197473)
(0.0911879 -1.27741e-06 -0.00165089)
(0.0910016 -1.13208e-06 -0.000785319)
(0.0912263 -9.59445e-07 -0.000430737)
(0.0913833 -7.80598e-07 -0.000260672)
(0.091495 -6.10846e-07 -0.000163859)
(0.0915747 -4.58194e-07 -0.000104732)
(0.0918653 1.36698e-06 -0.00197473)
(0.0911879 1.27642e-06 -0.00165089)
(0.0910016 1.1313e-06 -0.000785319)
(0.0912263 9.58729e-07 -0.000430737)
(0.0913833 7.79937e-07 -0.000260672)
(0.091495 6.10212e-07 -0.000163859)
(0.0915747 4.57602e-07 -0.000104732)
(0.0918652 4.23273e-06 -0.00197494)
(0.0911877 3.94063e-06 -0.00165109)
(0.0910012 3.47477e-06 -0.000785488)
(0.091226 2.9266e-06 -0.000430873)
(0.0913829 2.36573e-06 -0.000260777)
(0.0914947 1.84e-06 -0.000163936)
(0.0915745 1.37274e-06 -0.000104786)
(0.091865 7.51749e-06 -0.00197544)
(0.0911871 6.95651e-06 -0.00165154)
(0.0910005 6.06827e-06 -0.000785866)
(0.0912252 5.04455e-06 -0.000431171)
(0.0913822 4.02375e-06 -0.000261001)
(0.091494 3.09116e-06 -0.000164098)
(0.0915739 2.28167e-06 -0.000104898)
(0.0106708 -6.66759e-06 -0.00146373)
(0.0102378 -6.18805e-06 -0.00123311)
(0.0100563 -5.43415e-06 -0.00079771)
(0.0100875 -4.55471e-06 -0.000528034)
(0.0101478 -3.66377e-06 -0.000355397)
(0.0102073 -2.83695e-06 -0.000240024)
(0.0102569 -2.10865e-06 -0.000160602)
(0.010671 -3.80654e-06 -0.00146301)
(0.0102382 -3.5505e-06 -0.00123245)
(0.0100569 -3.1459e-06 -0.000797152)
(0.0100881 -2.66594e-06 -0.000527588)
(0.0101485 -2.16913e-06 -0.000355058)
(0.0102079 -1.69779e-06 -0.000239777)
(0.0102574 -1.27394e-06 -0.000160429)
(0.0106711 -1.23796e-06 -0.00146269)
(0.0102384 -1.15739e-06 -0.00123215)
(0.0100572 -1.02983e-06 -0.000796897)
(0.0100884 -8.77334e-07 -0.000527381)
(0.0101488 -7.17805e-07 -0.000354898)
(0.0102081 -5.64803e-07 -0.000239658)
(0.0102577 -4.25783e-07 -0.000160344)
(0.0106711 1.23683e-06 -0.00146269)
(0.0102384 1.15678e-06 -0.00123215)
(0.0100572 1.02942e-06 -0.000796897)
(0.0100884 8.76972e-07 -0.000527381)
(0.0101488 7.17489e-07 -0.000354898)
(0.0102081 5.64495e-07 -0.000239658)
(0.0102577 4.25537e-07 -0.000160344)
(0.010671 3.80537e-06 -0.00146301)
(0.0102382 3.54987e-06 -0.00123245)
(0.0100569 3.14545e-06 -0.000797152)
(0.0100881 2.66556e-06 -0.000527588)
(0.0101485 2.1688e-06 -0.000355057)
(0.0102079 1.69748e-06 -0.000239777)
(0.0102574 1.2737e-06 -0.000160428)
(0.0106708 6.66637e-06 -0.00146373)
(0.0102378 6.18729e-06 -0.00123311)
(0.0100563 5.43361e-06 -0.00079771)
(0.0100875 4.55425e-06 -0.000528033)
(0.0101478 3.66336e-06 -0.000355396)
(0.0102073 2.83659e-06 -0.000240024)
(0.0102569 2.10836e-06 -0.000160602)
(0.605161 -1.44282e-06 -2.19312e-05)
(0.605194 -9.16375e-07 -1.21168e-05)
(0.605209 -4.58393e-07 -4.25501e-06)
(0.60521 -3.78664e-08 2.97754e-06)
(0.605196 3.76448e-07 1.06533e-05)
(0.605166 8.14094e-07 2.0026e-05)
(0.605162 -8.74461e-07 -2.19063e-05)
(0.605194 -5.59735e-07 -1.2102e-05)
(0.60521 -2.82408e-07 -4.24814e-06)
(0.60521 -2.62264e-08 2.9774e-06)
(0.605197 2.25537e-07 1.06462e-05)
(0.605167 4.8874e-07 2.0011e-05)
(0.605162 -2.93012e-07 -2.18942e-05)
(0.605194 -1.88425e-07 -1.20946e-05)
(0.60521 -9.56822e-08 -4.24469e-06)
(0.605211 -9.73394e-09 2.97739e-06)
(0.605197 7.46279e-08 1.06427e-05)
(0.605167 1.62361e-07 2.00037e-05)
(0.605162 2.91875e-07 -2.18942e-05)
(0.605194 1.87226e-07 -1.20946e-05)
(0.60521 9.44274e-08 -4.2447e-06)
(0.605211 8.46452e-09 2.97739e-06)
(0.605197 -7.59413e-08 1.06427e-05)
(0.605167 -1.63717e-07 2.00037e-05)
(0.605162 8.7333e-07 -2.19063e-05)
(0.605194 5.58556e-07 -1.2102e-05)
(0.60521 2.81186e-07 -4.24814e-06)
(0.60521 2.49548e-08 2.97741e-06)
(0.605197 -2.26846e-07 1.06462e-05)
(0.605167 -4.90086e-07 2.00109e-05)
(0.605161 1.44173e-06 -2.19311e-05)
(0.605194 9.15255e-07 -1.21169e-05)
(0.605209 4.5724e-07 -4.25504e-06)
(0.60521 3.6709e-08 2.97754e-06)
(0.605196 -3.77678e-07 1.06533e-05)
(0.605166 -8.15366e-07 2.0026e-05)
(0.0916278 -1.59583e-06 -6.54501e-05)
(0.091661 -1.01254e-06 -3.63758e-05)
(0.0916771 -5.02779e-07 -1.24161e-05)
(0.0916775 -3.32736e-08 9.90828e-06)
(0.0916625 4.29781e-07 3.35517e-05)
(0.0916303 9.18084e-07 6.19047e-05)
(0.0916283 -9.68829e-07 -6.53764e-05)
(0.0916615 -6.19245e-07 -3.63316e-05)
(0.0916775 -3.10005e-07 -1.23958e-05)
(0.0916779 -2.35547e-08 9.90749e-06)
(0.0916629 2.58204e-07 3.35297e-05)
(0.0916307 5.52338e-07 6.1859e-05)
(0.0916285 -3.24683e-07 -6.53404e-05)
(0.0916617 -2.08334e-07 -3.63098e-05)
(0.0916777 -1.0477e-07 -1.23856e-05)
(0.0916781 -8.58372e-09 9.90719e-06)
(0.091663 8.5878e-08 3.35191e-05)
(0.0916309 1.84017e-07 6.18369e-05)
(0.0916285 3.24167e-07 -6.53404e-05)
(0.0916617 2.07842e-07 -3.63098e-05)
(0.0916777 1.04345e-07 -1.23856e-05)
(0.0916781 8.22656e-09 9.90719e-06)
(0.091663 -8.62664e-08 3.35191e-05)
(0.0916309 -1.84425e-07 6.18368e-05)
(0.0916283 9.68314e-07 -6.53764e-05)
(0.0916615 6.18761e-07 -3.63317e-05)
(0.0916775 3.09537e-07 -1.23958e-05)
(0.0916779 2.31258e-08 9.90746e-06)
(0.0916629 -2.58637e-07 3.35297e-05)
(0.0916307 -5.52774e-07 6.1859e-05)
(0.0916278 1.59529e-06 -6.54501e-05)
(0.091661 1.01205e-06 -3.63759e-05)
(0.0916771 5.02288e-07 -1.24161e-05)
(0.0916775 3.27775e-08 9.90826e-06)
(0.0916625 -4.30245e-07 3.35516e-05)
(0.0916303 -9.18525e-07 6.19047e-05)
(0.0102937 -1.48292e-06 -0.000102961)
(0.0103178 -9.45271e-07 -5.80092e-05)
(0.0103297 -4.71489e-07 -1.97066e-05)
(0.0103298 -3.33209e-08 1.64321e-05)
(0.0103181 3.98276e-07 5.4402e-05)
(0.0102941 8.50491e-07 9.86301e-05)
(0.0102942 -9.03047e-07 -0.000102846)
(0.0103182 -5.79476e-07 -5.79397e-05)
(0.01033 -2.91201e-07 -1.96745e-05)
(0.0103301 -2.32626e-08 1.64309e-05)
(0.0103184 2.40019e-07 5.43676e-05)
(0.0102944 5.1341e-07 9.85587e-05)
(0.0102944 -3.03008e-07 -0.000102789)
(0.0103184 -1.95087e-07 -5.79054e-05)
(0.0103302 -9.84089e-08 -1.96585e-05)
(0.0103303 -8.3136e-09 1.64305e-05)
(0.0103186 8.0094e-08 5.43508e-05)
(0.0102946 1.71485e-07 9.85238e-05)
(0.0102944 3.02828e-07 -0.000102789)
(0.0103184 1.94967e-07 -5.79054e-05)
(0.0103302 9.83644e-08 -1.96585e-05)
(0.0103303 8.34946e-09 1.64304e-05)
(0.0103186 -8.0073e-08 5.43508e-05)
(0.0102946 -1.71448e-07 9.85238e-05)
(0.0102942 9.02876e-07 -0.000102846)
(0.0103182 5.79347e-07 -5.79398e-05)
(0.01033 2.91133e-07 -1.96745e-05)
(0.0103301 2.32441e-08 1.64309e-05)
(0.0103184 -2.40046e-07 5.43676e-05)
(0.0102944 -5.13417e-07 9.85586e-05)
(0.0102937 1.48273e-06 -0.000102961)
(0.0103178 9.45121e-07 -5.80092e-05)
(0.0103297 4.71361e-07 -1.97066e-05)
(0.0103298 3.31846e-08 1.6432e-05)
(0.0103181 -3.98338e-07 5.44019e-05)
(0.0102941 -8.50493e-07 9.86301e-05)
(0.605115 1.30116e-06 3.31022e-05)
(0.605032 1.85662e-06 5.38352e-05)
(0.604899 2.48578e-06 9.09501e-05)
(0.604662 3.17031e-06 0.000164749)
(0.60411 3.85625e-06 0.000340187)
(0.60403 4.44975e-06 0.000839177)
(0.604963 4.82517e-06 0.00117209)
(0.605115 7.76652e-07 3.30773e-05)
(0.605032 1.09769e-06 5.37979e-05)
(0.6049 1.45192e-06 9.08973e-05)
(0.604662 1.82642e-06 0.000164678)
(0.60411 2.19096e-06 0.000340096)
(0.60403 2.49913e-06 0.000839069)
(0.604963 2.69305e-06 0.00117197)
(0.605115 2.5752e-07 3.30654e-05)
(0.605032 3.62465e-07 5.37804e-05)
(0.6049 4.7678e-07 9.08728e-05)
(0.604662 5.95938e-07 0.000164646)
(0.60411 7.10322e-07 0.000340056)
(0.60403 8.05884e-07 0.000839023)
(0.604963 8.65564e-07 0.00117192)
(0.605115 -2.58906e-07 3.30654e-05)
(0.605032 -3.6392e-07 5.37803e-05)
(0.6049 -4.78338e-07 9.08728e-05)
(0.604662 -5.97605e-07 0.000164646)
(0.60411 -7.12079e-07 0.000340056)
(0.60403 -8.07949e-07 0.000839023)
(0.604963 -8.6859e-07 0.00117192)
(0.605115 -7.7802e-07 3.30773e-05)
(0.605032 -1.09913e-06 5.37979e-05)
(0.6049 -1.45348e-06 9.08972e-05)
(0.604662 -1.82806e-06 0.000164678)
(0.60411 -2.19266e-06 0.000340096)
(0.60403 -2.50111e-06 0.000839069)
(0.604963 -2.69596e-06 0.00117197)
(0.605115 -1.30248e-06 3.31021e-05)
(0.605032 -1.85801e-06 5.38351e-05)
(0.604899 -2.48726e-06 9.095e-05)
(0.604662 -3.17186e-06 0.000164749)
(0.60411 -3.85787e-06 0.000340186)
(0.60403 -4.45162e-06 0.000839176)
(0.604963 -4.82791e-06 0.00117209)
(0.0915776 1.45927e-06 0.000100008)
(0.091499 2.07238e-06 0.000156777)
(0.0913878 2.76084e-06 0.000249559)
(0.0912324 3.50219e-06 0.000413643)
(0.0910065 4.23694e-06 0.000744909)
(0.0910969 4.86787e-06 0.00152633)
(0.0917702 5.2652e-06 0.00206148)
(0.0915781 8.72948e-07 9.99337e-05)
(0.0914995 1.22855e-06 0.000156665)
(0.0913883 1.61822e-06 0.000249403)
(0.091233 2.02684e-06 0.000413433)
(0.091007 2.42144e-06 0.000744643)
(0.0910972 2.75357e-06 0.00152601)
(0.0917704 2.96165e-06 0.00206113)
(0.0915783 2.90149e-07 9.98978e-05)
(0.0914997 4.06606e-07 0.000156613)
(0.0913886 5.32677e-07 0.00024933)
(0.0912332 6.63201e-07 0.000413337)
(0.0910072 7.87679e-07 0.000744524)
(0.0910974 8.91302e-07 0.00152587)
(0.0917705 9.55612e-07 0.00206098)
(0.0915783 -2.90527e-07 9.98978e-05)
(0.0914997 -4.06984e-07 0.000156613)
(0.0913886 -5.33058e-07 0.00024933)
(0.0912332 -6.63542e-07 0.000413337)
(0.0910072 -7.87953e-07 0.000744524)
(0.0910974 -8.91912e-07 0.00152587)
(0.0917705 -9.57719e-07 0.00206098)
(0.0915781 -8.73379e-07 9.99336e-05)
(0.0914995 -1.22898e-06 0.000156665)
(0.0913883 -1.61862e-06 0.000249402)
(0.091233 -2.02718e-06 0.000413433)
(0.091007 -2.4217e-06 0.000744643)
(0.0910972 -2.75411e-06 0.00152601)
(0.0917704 -2.96366e-06 0.00206113)
(0.0915776 -1.45966e-06 0.000100008)
(0.091499 -2.07275e-06 0.000156777)
(0.0913878 -2.76122e-06 0.000249559)
(0.0912324 -3.50249e-06 0.000413642)
(0.0910065 -4.23717e-06 0.000744909)
(0.0910969 -4.86838e-06 0.00152633)
(0.0917702 -5.26712e-06 0.00206148)
(0.010257 1.34626e-06 0.000155034)
(0.0102065 1.90028e-06 0.000232524)
(0.0101448 2.51271e-06 0.000345175)
(0.01008 3.16098e-06 0.000514703)
(0.0100374 3.79236e-06 0.000779341)
(0.010182 4.32731e-06 0.00121028)
(0.0106237 4.66493e-06 0.00153156)
(0.0102574 8.08761e-07 0.000154918)
(0.0102069 1.13262e-06 0.000232353)
(0.0101453 1.48299e-06 0.000344938)
(0.0100805 1.84555e-06 0.000514388)
(0.0100378 2.19115e-06 0.000778946)
(0.0101823 2.47931e-06 0.00120981)
(0.0106239 2.66043e-06 0.00153105)
(0.0102576 2.6949e-07 0.000154862)
(0.0102071 3.75956e-07 0.000232272)
(0.0101455 4.89936e-07 0.000344826)
(0.0100808 6.06569e-07 0.000514242)
(0.010038 7.16572e-07 0.000778766)
(0.0101825 8.07441e-07 0.0012096)
(0.0106239 8.64053e-07 0.00153082)
(0.0102576 -2.69422e-07 0.000154862)
(0.0102071 -3.75877e-07 0.000232272)
(0.0101455 -4.8982e-07 0.000344826)
(0.0100808 -6.06385e-07 0.000514242)
(0.010038 -7.16328e-07 0.000778766)
(0.0101825 -8.07538e-07 0.0012096)
(0.0106239 -8.6551e-07 0.00153082)
(0.0102574 -8.0872e-07 0.000154918)
(0.0102069 -1.13255e-06 0.000232353)
(0.0101453 -1.48289e-06 0.000344937)
(0.0100805 -1.84535e-06 0.000514388)
(0.0100378 -2.19087e-06 0.000778946)
(0.0101823 -2.47933e-06 0.00120981)
(0.0106239 -2.6618e-06 0.00153105)
(0.010257 -1.34623e-06 0.000155034)
(0.0102065 -1.90023e-06 0.000232524)
(0.0101448 -2.51261e-06 0.000345175)
(0.01008 -3.16075e-06 0.000514702)
(0.0100374 -3.79208e-06 0.000779341)
(0.010182 -4.32731e-06 0.00121028)
(0.0106237 -4.66624e-06 0.00153156)
(0.60521 1.08085e-05 -0.00113677)
(0.604186 9.89879e-06 -0.000959086)
(0.604013 8.44365e-06 -0.000383424)
(0.60462 6.82895e-06 -0.000180341)
(0.60488 5.30112e-06 -9.92498e-05)
(0.605019 3.9748e-06 -5.85113e-05)
(0.605106 2.87505e-06 -3.5954e-05)
(0.605209 1.6279e-05 -0.00113739)
(0.604185 1.46812e-05 -0.000959631)
(0.604012 1.21242e-05 -0.000383848)
(0.604618 9.44732e-06 -0.000180644)
(0.604879 7.08156e-06 -9.94557e-05)
(0.605017 5.15072e-06 -5.86469e-05)
(0.605105 3.63303e-06 -3.60411e-05)
(0.605208 2.45985e-05 -0.00113863)
(0.604182 2.17395e-05 -0.000960692)
(0.604008 1.70647e-05 -0.000384614)
(0.604615 1.25695e-05 -0.000181146)
(0.604876 8.96215e-06 -9.9771e-05)
(0.605015 6.25157e-06 -5.8841e-05)
(0.605103 4.26336e-06 -3.61587e-05)
(0.605206 3.83468e-05 -0.00114127)
(0.604177 3.3058e-05 -0.000962905)
(0.604002 2.3921e-05 -0.000386053)
(0.60461 1.61903e-05 -0.000181982)
(0.604872 1.07635e-05 -0.000100244)
(0.605013 7.09908e-06 -5.91071e-05)
(0.605101 4.63396e-06 -3.63088e-05)
(0.605202 6.57584e-05 -0.00114742)
(0.604167 5.53319e-05 -0.000967931)
(0.603991 3.40271e-05 -0.000388866)