/*--------------------------------*- C++ -*----------------------------------*\
  =========                 |
  \\      /  F ield         | OpenFOAM: The Open Source CFD Toolbox
   \\    /   O peration     | Website:  https://openfoam.org
    \\  /    A nd           | Version:  7
     \\/     M anipulation  |
\*---------------------------------------------------------------------------*/
FoamFile
{
    version     2.0;
    format      ascii;
    class       volScalarField;
    location    "2";
    object      p;
}
// * * * * * * * * * * * * * * * * * * * * * * * * * * * * * * * * * * * * * //

dimensions      [0 2 -2 0 0 0 0];

internalField   nonuniform List<scalar> 
7784
(
-4.9899e-11
-0.000352291
-0.00106078
-0.00188506
-0.00248198
-0.00290964
-0.00326217
0.000269876
-0.000193843
-0.00105373
-0.00189175
-0.00247382
-0.00289992
-0.00325543
0.000215669
-0.000252667
-0.00109345
-0.00190545
-0.00247407
-0.00289689
-0.00325203
0.000186854
-0.000279295
-0.0011122
-0.00191398
-0.00247623
-0.00289624
-0.00325025
0.0001769
-0.000289699
-0.00112113
-0.0019191
-0.00247796
-0.00289599
-0.00324903
0.000172048
-0.000295516
-0.00112635
-0.00192226
-0.00247912
-0.00289585
-0.00324817
0.000169965
-0.000298357
-0.00112905
-0.00192395
-0.00247975
-0.00289571
-0.00324753
-0.000793937
-0.00113625
-0.00172939
-0.00228965
-0.00270573
-0.00304305
-0.00334504
-0.000711016
-0.0010882
-0.00171862
-0.00228002
-0.00269155
-0.00303137
-0.00333689
-0.000736151
-0.00111518
-0.00173269
-0.00228012
-0.00268608
-0.0030256
-0.00333192
-0.000745297
-0.00112459
-0.00173849
-0.00228089
-0.00268407
-0.00302269
-0.00332888
-0.000744465
-0.00112575
-0.00174011
-0.00228105
-0.00268282
-0.00302071
-0.00332666
-0.000742555
-0.00112572
-0.00174071
-0.002281
-0.00268196
-0.00301934
-0.00332505
-0.00074045
-0.00112498
-0.00174059
-0.00228068
-0.00268127
-0.00301834
-0.00332388
-0.00170304
-0.00187592
-0.00221502
-0.0025727
-0.00288205
-0.00316121
-0.003423
-0.00166514
-0.00184169
-0.00219292
-0.00255543
-0.00286664
-0.00314936
-0.00341451
-0.00165757
-0.00183813
-0.00218872
-0.00254821
-0.00285861
-0.00314239
-0.00340891
-0.00165155
-0.00183487
-0.00218602
-0.00254437
-0.0028542
-0.00313818
-0.00340518
-0.00164468
-0.00183056
-0.00218308
-0.00254141
-0.00285107
-0.00313512
-0.00340235
-0.00163907
-0.00182705
-0.00218071
-0.00253922
-0.00284882
-0.00313289
-0.00340023
-0.00163462
-0.00182415
-0.00217873
-0.0025375
-0.00284716
-0.00313127
-0.00339867
-0.00357092
-0.0038508
-0.00411523
-0.00437523
-0.00464104
-0.00492555
-0.00356609
-0.00384726
-0.0041128
-0.00437373
-0.00464036
-0.00492529
-0.00356289
-0.00384452
-0.0041106
-0.00437197
-0.00463884
-0.0049236
-0.00356076
-0.00384243
-0.00410865
-0.00437013
-0.00463688
-0.00492118
-0.00355914
-0.0038407
-0.00410691
-0.00436831
-0.00463482
-0.00491858
-0.00355792
-0.00383931
-0.00410541
-0.00436667
-0.0046329
-0.00491615
-0.00355699
-0.00383821
-0.00410418
-0.00436529
-0.00463126
-0.00491409
-0.00362114
-0.00387908
-0.00412747
-0.00437397
-0.00462545
-0.00488827
-0.00361535
-0.00387506
-0.00412487
-0.00437249
-0.00462494
-0.00488866
-0.00361126
-0.00387186
-0.00412247
-0.00437075
-0.0046237
-0.00488764
-0.00360842
-0.00386939
-0.00412037
-0.00436892
-0.00462201
-0.00488581
-0.00360622
-0.00386733
-0.00411848
-0.00436713
-0.00462021
-0.00488378
-0.00360454
-0.00386568
-0.00411687
-0.00436551
-0.00461849
-0.00488182
-0.00360328
-0.00386438
-0.00411555
-0.00436413
-0.004617
-0.00488011
-0.0036699
-0.00390586
-0.00413593
-0.00436527
-0.00459741
-0.00483823
-0.00366387
-0.00390171
-0.00413328
-0.00436378
-0.00459712
-0.00483896
-0.00365949
-0.00389842
-0.0041309
-0.00436208
-0.00459608
-0.00483831
-0.00365632
-0.00389582
-0.0041288
-0.00436033
-0.00459462
-0.00483689
-0.00365381
-0.00389363
-0.00412691
-0.00435862
-0.00459304
-0.00483523
-0.00365185
-0.00389186
-0.00412528
-0.00435707
-0.00459152
-0.00483359
-0.00365037
-0.00389046
-0.00412396
-0.00435576
-0.00459019
-0.00483212
-0.00523919
-0.00559706
-0.00602216
-0.00655197
-0.0072331
-0.00787993
-0.0079112
-0.00523893
-0.00559668
-0.00602001
-0.00654222
-0.00722923
-0.00795667
-0.00805202
-0.00523681
-0.00559287
-0.00601278
-0.00652708
-0.00719829
-0.00790979
-0.00800207
-0.00523359
-0.00558786
-0.00600447
-0.00651318
-0.00717614
-0.00788139
-0.00797314
-0.0052301
-0.0055831
-0.00599728
-0.00650252
-0.00716163
-0.00786507
-0.00795771
-0.00522694
-0.005579
-0.00599153
-0.00649464
-0.0071516
-0.00785406
-0.00794736
-0.00522431
-0.00557574
-0.0059872
-0.00648904
-0.00714483
-0.00784681
-0.00794059
-0.0051735
-0.00549254
-0.00585397
-0.00628215
-0.00681389
-0.00730482
-0.00737109
-0.00517474
-0.00549466
-0.00585576
-0.00627737
-0.0068074
-0.00733578
-0.00743086
-0.00517325
-0.00549232
-0.00585137
-0.00626706
-0.0067855
-0.00730548
-0.00740354
-0.00517065
-0.00548838
-0.00584529
-0.0062573
-0.00677054
-0.00728788
-0.00738786
-0.005168
-0.00548447
-0.00583979
-0.00624962
-0.00676069
-0.00727794
-0.00737994
-0.00516552
-0.00548101
-0.00583523
-0.00624369
-0.00675357
-0.00727083
-0.0073742
-0.00516341
-0.00547819
-0.00583168
-0.00623935
-0.00674861
-0.00726594
-0.0073702
-0.00509317
-0.00536686
-0.00566021
-0.00597851
-0.00632834
-0.0066082
-0.00662978
-0.00509482
-0.00536948
-0.00566317
-0.0059788
-0.00632882
-0.00662165
-0.0066413
-0.00509424
-0.00536866
-0.00566147
-0.00597426
-0.00631954
-0.00661137
-0.00663444
-0.00509252
-0.00536626
-0.00565792
-0.00596875
-0.00631165
-0.00660343
-0.00662912
-0.00509052
-0.0053636
-0.00565431
-0.0059639
-0.00630576
-0.0065981
-0.00662575
-0.00508855
-0.00536108
-0.00565109
-0.00595987
-0.00630116
-0.00659391
-0.00662298
-0.00508682
-0.00535894
-0.00564847
-0.00595677
-0.00629776
-0.00659086
-0.0066209
0.000169502
-0.000299422
-0.00113024
-0.00192474
-0.00248001
-0.00289554
-0.00324705
0.000169649
-0.000299695
-0.00113069
-0.00192504
-0.00248008
-0.00289538
-0.00324672
0.000169841
-0.000299717
-0.00113081
-0.00192513
-0.00248008
-0.00289529
-0.00324655
0.00016984
-0.000299718
-0.00113082
-0.00192513
-0.00248008
-0.00289529
-0.00324655
0.000169646
-0.000299699
-0.00113069
-0.00192504
-0.00248008
-0.00289538
-0.00324672
0.000169497
-0.000299427
-0.00113024
-0.00192474
-0.00248002
-0.00289554
-0.00324705
-0.000738447
-0.00112395
-0.00174011
-0.00228024
-0.00268069
-0.00301761
-0.00332303
-0.000736938
-0.00112307
-0.00173963
-0.00227985
-0.00268027
-0.00301712
-0.00332248
-0.000736141
-0.00112258
-0.00173934
-0.00227962
-0.00268004
-0.00301687
-0.0033222
-0.000736142
-0.00112258
-0.00173934
-0.00227962
-0.00268004
-0.00301687
-0.0033222
-0.000736942
-0.00112307
-0.00173963
-0.00227985
-0.00268027
-0.00301712
-0.00332248
-0.000738452
-0.00112396
-0.00174012
-0.00228025
-0.0026807
-0.00301762
-0.00332303
-0.00163123
-0.00182185
-0.00217714
-0.00253619
-0.00284595
-0.00313011
-0.00339755
-0.00162896
-0.00182027
-0.00217602
-0.00253528
-0.00284515
-0.00312935
-0.00339682
-0.00162781
-0.00181946
-0.00217545
-0.00253482
-0.00284474
-0.00312897
-0.00339646
-0.00162782
-0.00181946
-0.00217545
-0.00253482
-0.00284474
-0.00312897
-0.00339646
-0.00162896
-0.00182027
-0.00217603
-0.00253529
-0.00284515
-0.00312935
-0.00339682
-0.00163124
-0.00182186
-0.00217714
-0.00253619
-0.00284596
-0.00313011
-0.00339755
-0.00355631
-0.00383739
-0.00410325
-0.00436421
-0.00462998
-0.0049125
-0.00355586
-0.00383685
-0.00410262
-0.00436348
-0.00462911
-0.00491143
-0.00355563
-0.00383657
-0.0041023
-0.00436311
-0.00462867
-0.00491089
-0.00355563
-0.00383657
-0.0041023
-0.00436311
-0.00462866
-0.00491088
-0.00355586
-0.00383685
-0.00410261
-0.00436348
-0.0046291
-0.00491142
-0.00355631
-0.00383739
-0.00410324
-0.00436421
-0.00462997
-0.00491249
-0.00360236
-0.00386342
-0.00411454
-0.00436307
-0.00461583
-0.00487876
-0.00360176
-0.00386278
-0.00411387
-0.00436234
-0.00461503
-0.00487784
-0.00360146
-0.00386246
-0.00411353
-0.00436197
-0.00461462
-0.00487737
-0.00360146
-0.00386246
-0.00411353
-0.00436197
-0.00461461
-0.00487737
-0.00360175
-0.00386277
-0.00411387
-0.00436234
-0.00461502
-0.00487784
-0.00360236
-0.00386341
-0.00411454
-0.00436306
-0.00461582
-0.00487876
-0.00364929
-0.00388943
-0.00412295
-0.00435474
-0.00458914
-0.00483096
-0.00364858
-0.00388874
-0.00412227
-0.00435405
-0.00458841
-0.00483015
-0.00364823
-0.0038884
-0.00412193
-0.00435369
-0.00458804
-0.00482974
-0.00364823
-0.0038884
-0.00412193
-0.00435369
-0.00458804
-0.00482974
-0.00364858
-0.00388874
-0.00412227
-0.00435404
-0.0045884
-0.00483015
-0.00364929
-0.00388943
-0.00412295
-0.00435474
-0.00458913
-0.00483095
-0.00522233
-0.00557335
-0.00598414
-0.00648525
-0.00714046
-0.00784227
-0.00793641
-0.00522101
-0.00557179
-0.00598219
-0.00648293
-0.00713785
-0.00783962
-0.007934
-0.00522035
-0.00557102
-0.00598125
-0.00648182
-0.00713662
-0.00783839
-0.00793289
-0.00522034
-0.00557101
-0.00598125
-0.00648182
-0.00713662
-0.00783839
-0.00793289
-0.005221
-0.00557178
-0.00598218
-0.00648292
-0.00713784
-0.00783961
-0.00793399
-0.00522232
-0.00557334
-0.00598412
-0.00648524
-0.00714044
-0.00784225
-0.00793639
-0.00516177
-0.00547608
-0.00582913
-0.00623636
-0.00674532
-0.00726278
-0.00736764
-0.00516066
-0.00547469
-0.00582749
-0.00623449
-0.00674332
-0.00726089
-0.00736611
-0.00516011
-0.005474
-0.00582668
-0.00623359
-0.00674237
-0.00726
-0.0073654
-0.00516011
-0.005474
-0.00582668
-0.00623358
-0.00674237
-0.00726
-0.0073654
-0.00516066
-0.00547468
-0.00582748
-0.00623448
-0.00674331
-0.00726088
-0.0073661
-0.00516176
-0.00547607
-0.00582911
-0.00623634
-0.0067453
-0.00726276
-0.00736762
-0.00508546
-0.00535729
-0.00564653
-0.00595455
-0.00629543
-0.00658879
-0.00661949
-0.00508453
-0.00535619
-0.00564525
-0.00595314
-0.00629397
-0.00658752
-0.00661863
-0.00508406
-0.00535563
-0.00564462
-0.00595245
-0.00629327
-0.00658691
-0.00661821
-0.00508405
-0.00535563
-0.00564462
-0.00595244
-0.00629327
-0.00658691
-0.00661821
-0.00508452
-0.00535618
-0.00564524
-0.00595313
-0.00629396
-0.00658751
-0.00661862
-0.00508545
-0.00535728
-0.00564651
-0.00595454
-0.00629541
-0.00658877
-0.00661947
0.000169958
-0.000298364
-0.00112906
-0.00192396
-0.00247975
-0.00289571
-0.00324753
0.000172041
-0.000295523
-0.00112636
-0.00192226
-0.00247912
-0.00289585
-0.00324817
0.000176895
-0.000289706
-0.00112114
-0.0019191
-0.00247796
-0.00289599
-0.00324903
0.00018685
-0.0002793
-0.00111221
-0.00191398
-0.00247623
-0.00289625
-0.00325025
0.00021567
-0.000252668
-0.00109346
-0.00190546
-0.00247408
-0.0028969
-0.00325203
0.000269882
-0.000193842
-0.00105373
-0.00189176
-0.00247382
-0.00289993
-0.00325543
2.79702e-09
-0.000352292
-0.00106079
-0.00188507
-0.00248199
-0.00290965
-0.00326217
-0.000740457
-0.00112499
-0.0017406
-0.00228069
-0.00268127
-0.00301835
-0.00332388
-0.000742561
-0.00112572
-0.00174072
-0.002281
-0.00268197
-0.00301934
-0.00332505
-0.000744471
-0.00112576
-0.00174011
-0.00228106
-0.00268283
-0.00302072
-0.00332667
-0.000745299
-0.00112459
-0.0017385
-0.0022809
-0.00268408
-0.00302269
-0.00332888
-0.000736147
-0.00111518
-0.00173269
-0.00228013
-0.00268608
-0.00302561
-0.00333193
-0.000711007
-0.00108819
-0.00171862
-0.00228003
-0.00269156
-0.00303137
-0.0033369
-0.000793927
-0.00113624
-0.0017294
-0.00228966
-0.00270575
-0.00304306
-0.00334505
-0.00163462
-0.00182415
-0.00217874
-0.00253751
-0.00284717
-0.00313127
-0.00339867
-0.00163907
-0.00182705
-0.00218072
-0.00253922
-0.00284882
-0.00313289
-0.00340023
-0.00164469
-0.00183057
-0.00218308
-0.00254142
-0.00285107
-0.00313512
-0.00340235
-0.00165155
-0.00183487
-0.00218602
-0.00254437
-0.0028542
-0.00313819
-0.00340518
-0.00165757
-0.00183813
-0.00218873
-0.00254822
-0.00285861
-0.0031424
-0.00340892
-0.00166513
-0.00184169
-0.00219293
-0.00255544
-0.00286665
-0.00314936
-0.00341452
-0.00170303
-0.00187592
-0.00221503
-0.00257271
-0.00288206
-0.00316122
-0.00342301
-0.00355699
-0.00383821
-0.00410418
-0.00436528
-0.00463125
-0.00491408
-0.00355792
-0.0038393
-0.0041054
-0.00436666
-0.00463289
-0.00491614
-0.00355914
-0.0038407
-0.0041069
-0.0043683
-0.00463481
-0.00491856
-0.00356076
-0.00384242
-0.00410864
-0.00437011
-0.00463686
-0.00492116
-0.00356289
-0.00384452
-0.00411059
-0.00437196
-0.00463882
-0.00492358
-0.00356609
-0.00384726
-0.00411279
-0.00437372
-0.00464035
-0.00492526
-0.00357092
-0.0038508
-0.00411523
-0.00437522
-0.00464103
-0.00492553
-0.00360327
-0.00386437
-0.00411554
-0.00436413
-0.004617
-0.0048801
-0.00360454
-0.00386567
-0.00411686
-0.0043655
-0.00461848
-0.00488181
-0.00360622
-0.00386733
-0.00411848
-0.00436712
-0.00462019
-0.00488377
-0.00360842
-0.00386938
-0.00412036
-0.00436891
-0.00462199
-0.00488579
-0.00361126
-0.00387186
-0.00412247
-0.00437074
-0.00462368
-0.00488762
-0.00361535
-0.00387506
-0.00412486
-0.00437248
-0.00462493
-0.00488864
-0.00362114
-0.00387908
-0.00412746
-0.00437396
-0.00462543
-0.00488825
-0.00365037
-0.00389046
-0.00412395
-0.00435576
-0.00459019
-0.00483211
-0.00365185
-0.00389185
-0.00412528
-0.00435706
-0.00459151
-0.00483357
-0.00365381
-0.00389363
-0.0041269
-0.00435861
-0.00459303
-0.00483522
-0.00365632
-0.00389581
-0.00412879
-0.00436032
-0.00459461
-0.00483687
-0.00365949
-0.00389841
-0.00413089
-0.00436207
-0.00459606
-0.00483829
-0.00366387
-0.00390171
-0.00413328
-0.00436377
-0.00459711
-0.00483894
-0.0036699
-0.00390586
-0.00413592
-0.00436526
-0.00459739
-0.00483821
-0.0052243
-0.00557573
-0.00598718
-0.00648901
-0.00714481
-0.00784679
-0.00794056
-0.00522692
-0.00557898
-0.00599151
-0.00649461
-0.00715157
-0.00785402
-0.00794733
-0.00523008
-0.00558307
-0.00599724
-0.00650249
-0.00716159
-0.00786502
-0.00795767
-0.00523357
-0.00558783
-0.00600443
-0.00651313
-0.00717609
-0.00788133
-0.00797308
-0.00523678
-0.00559283
-0.00601274
-0.00652703
-0.00719823
-0.00790972
-0.008002
-0.00523891
-0.00559665
-0.00601997
-0.00654217
-0.00722917
-0.0079566
-0.00805194
-0.00523916
-0.00559702
-0.00602212
-0.00655192
-0.00723303
-0.00787986
-0.00791112
-0.00516339
-0.00547817
-0.00583166
-0.00623933
-0.00674858
-0.00726592
-0.00737018
-0.0051655
-0.00548099
-0.0058352
-0.00624367
-0.00675354
-0.0072708
-0.00737417
-0.00516798
-0.00548445
-0.00583976
-0.00624958
-0.00676066
-0.0072779
-0.00737989
-0.00517063
-0.00548835
-0.00584526
-0.00625726
-0.0067705
-0.00728783
-0.00738781
-0.00517322
-0.00549229
-0.00585133
-0.00626701
-0.00678545
-0.00730542
-0.00740348
-0.00517471
-0.00549463
-0.00585572
-0.00627732
-0.00680735
-0.00733571
-0.00743079
-0.00517347
-0.00549251
-0.00585393
-0.0062821
-0.00681383
-0.00730475
-0.00737101
-0.00508681
-0.00535892
-0.00564845
-0.00595675
-0.00629774
-0.00659083
-0.00662087
-0.00508854
-0.00536106
-0.00565107
-0.00595985
-0.00630113
-0.00659388
-0.00662294
-0.0050905
-0.00536357
-0.00565428
-0.00596387
-0.00630573
-0.00659806
-0.00662571
-0.0050925
-0.00536623
-0.00565788
-0.00596871
-0.00631161
-0.00660338
-0.00662906
-0.00509422
-0.00536863
-0.00566144
-0.00597422
-0.00631949
-0.00661131
-0.00663438
-0.0050948
-0.00536945
-0.00566313
-0.00597875
-0.00632877
-0.00662158
-0.00664122
-0.00509315
-0.00536683
-0.00566017
-0.00597846
-0.00632828
-0.00660813
-0.0066297
-0.00233747
-0.0023934
-0.00258006
-0.00282169
-0.00305877
-0.00328739
-0.00350976
-0.00230301
-0.00235791
-0.00255612
-0.00280512
-0.00304544
-0.00327713
-0.00350224
-0.00228284
-0.00234298
-0.00254552
-0.00279583
-0.0030371
-0.00327024
-0.00349681
-0.00227005
-0.00233399
-0.00253895
-0.00278997
-0.00303175
-0.0032656
-0.00349292
-0.0022598
-0.00232656
-0.00253352
-0.00278541
-0.0030277
-0.00326204
-0.00348986
-0.00225189
-0.00232083
-0.00252934
-0.00278195
-0.00302467
-0.00325936
-0.0034875
-0.00224596
-0.0023165
-0.00252614
-0.00277935
-0.00302242
-0.00325737
-0.00348572
-0.00278116
-0.00277967
-0.00288861
-0.00305468
-0.00323287
-0.00341564
-0.00360054
-0.00275404
-0.00275176
-0.00286947
-0.00304084
-0.00322177
-0.00340705
-0.00359415
-0.00273437
-0.00273636
-0.00285823
-0.0030316
-0.00321394
-0.00340071
-0.00358918
-0.00272027
-0.00272583
-0.00285034
-0.00302505
-0.00320836
-0.00339607
-0.00358539
-0.00270841
-0.00271703
-0.00284379
-0.00301977
-0.00320394
-0.00339235
-0.0035823
-0.00269936
-0.0027102
-0.00283867
-0.00301566
-0.00320051
-0.00338946
-0.00357985
-0.00269273
-0.0027051
-0.00283479
-0.00301254
-0.00319792
-0.00338726
-0.00357797
-0.00312841
-0.00308602
-0.00315139
-0.00326384
-0.00339506
-0.00353853
-0.00368958
-0.00311306
-0.00306766
-0.00313734
-0.00325274
-0.003386
-0.00353146
-0.00368424
-0.0030967
-0.00305451
-0.00312731
-0.00324443
-0.00337908
-0.00352589
-0.00367986
-0.00308229
-0.00304399
-0.00311944
-0.00323804
-0.00337378
-0.00352153
-0.00367635
-0.00306771
-0.0030346
-0.0031127
-0.00323269
-0.00336939
-0.00351792
-0.00367339
-0.00305771
-0.00302731
-0.0031073
-0.00322841
-0.00336589
-0.00351503
-0.00367099
-0.00305078
-0.0030219
-0.0031032
-0.00322513
-0.0033632
-0.00351279
-0.00366912
-0.00338337
-0.00334157
-0.00337207
-0.00344592
-0.00354127
-0.00365213
-0.00377351
-0.00337174
-0.00332728
-0.00336133
-0.00343725
-0.00353408
-0.00364645
-0.00376914
-0.00335966
-0.00331677
-0.00335293
-0.00343023
-0.00352824
-0.00364172
-0.0037654
-0.00334886
-0.00330801
-0.00334597
-0.0034245
-0.00352349
-0.00363784
-0.00376227
-0.00333894
-0.00330022
-0.00333988
-0.00341957
-0.00351944
-0.00363451
-0.00375956
-0.00333104
-0.00329389
-0.00333489
-0.00341553
-0.00351613
-0.00363178
-0.00375732
-0.0033251
-0.00328904
-0.00333101
-0.00341237
-0.00351353
-0.00362963
-0.00375554
-0.00359078
-0.00354551
-0.00355514
-0.0036022
-0.00367017
-0.00375436
-0.00385026
-0.00358336
-0.00353491
-0.00354712
-0.00359559
-0.00366456
-0.00374985
-0.00384674
-0.00357457
-0.00352683
-0.00354046
-0.00358991
-0.00365977
-0.00374594
-0.00384363
-0.00356642
-0.00351985
-0.00353469
-0.00358506
-0.00365572
-0.00374261
-0.00384093
-0.003559
-0.00351358
-0.00352953
-0.00358078
-0.00365217
-0.00373967
-0.00383854
-0.00355275
-0.00350831
-0.00352521
-0.0035772
-0.0036492
-0.00373722
-0.00383651
-0.00354782
-0.00350416
-0.00352177
-0.00357435
-0.00364683
-0.00373525
-0.00383489
-0.00375889
-0.00371101
-0.00370704
-0.00373493
-0.0037819
-0.00384447
-0.00391885
-0.00375454
-0.00370334
-0.00370118
-0.00372998
-0.00377758
-0.00384094
-0.00391605
-0.00374833
-0.00369733
-0.00369608
-0.00372553
-0.00377377
-0.00383778
-0.00391351
-0.00374228
-0.00369195
-0.00369149
-0.00372158
-0.00377042
-0.003835
-0.00391124
-0.00373665
-0.00368701
-0.00368729
-0.00371802
-0.00376742
-0.0038325
-0.00390918
-0.00373177
-0.00368277
-0.0036837
-0.00371498
-0.00376486
-0.00383037
-0.00390742
-0.00372779
-0.00367934
-0.00368079
-0.00371252
-0.00376279
-0.00382863
-0.00390598
-0.00372557
-0.00393601
-0.00414331
-0.0043498
-0.0045591
-0.00477269
-0.00372017
-0.00393226
-0.00414094
-0.00434865
-0.00455889
-0.00477338
-0.003716
-0.00392917
-0.00413876
-0.00434728
-0.00455807
-0.00477304
-0.00371282
-0.00392664
-0.0041368
-0.00434582
-0.0045569
-0.00477203
-0.00371023
-0.00392449
-0.00413502
-0.00434437
-0.0045556
-0.00477078
-0.00370817
-0.00392271
-0.00413348
-0.00434303
-0.00455432
-0.00476948
-0.00370659
-0.0039213
-0.00413222
-0.00434188
-0.00455319
-0.0047683
-0.00378509
-0.00396848
-0.00415103
-0.00433348
-0.00451686
-0.00470162
-0.00378044
-0.00396523
-0.00414895
-0.0043324
-0.00451668
-0.00470228
-0.00377664
-0.00396243
-0.00414698
-0.00433116
-0.00451603
-0.00470214
-0.00377361
-0.00396006
-0.00414519
-0.00432984
-0.00451508
-0.00470147
-0.00377107
-0.003958
-0.00414354
-0.00432854
-0.00451402
-0.00470056
-0.00376901
-0.00395628
-0.0041421
-0.00432733
-0.00451296
-0.00469959
-0.0037674
-0.0039549
-0.00414091
-0.00432629
-0.00451201
-0.00469867
-0.0038445
-0.00400123
-0.00415878
-0.00431661
-0.00447427
-0.00463109
-0.00384056
-0.00399846
-0.00415698
-0.00431565
-0.00447412
-0.00463168
-0.00383721
-0.00399598
-0.00415525
-0.00431456
-0.0044736
-0.00463166
-0.00383442
-0.00399382
-0.00415364
-0.00431342
-0.00447284
-0.00463122
-0.00383203
-0.00399191
-0.00415214
-0.00431228
-0.00447198
-0.00463058
-0.00383005
-0.00399029
-0.00415083
-0.00431121
-0.00447111
-0.00462985
-0.00382848
-0.00398899
-0.00414974
-0.0043103
-0.00447032
-0.00462916
-0.00390131
-0.00403285
-0.00416631
-0.00430029
-0.00443344
-0.00456424
-0.00389805
-0.00403053
-0.00416479
-0.00429947
-0.00443329
-0.00456473
-0.00389517
-0.00402839
-0.00416329
-0.00429853
-0.00443286
-0.00456476
-0.00389269
-0.00402648
-0.00416188
-0.00429755
-0.00443225
-0.00456447
-0.00389051
-0.00402476
-0.00416055
-0.00429656
-0.00443155
-0.00456401
-0.00388868
-0.00402328
-0.00415938
-0.00429564
-0.00443084
-0.00456348
-0.00388721
-0.00402207
-0.00415839
-0.00429484
-0.0044302
-0.00456295
-0.00395391
-0.00406239
-0.00417343
-0.00428514
-0.00439564
-0.00450293
-0.00395125
-0.00406047
-0.00417216
-0.00428445
-0.0043955
-0.00450331
-0.00394883
-0.00405866
-0.00417089
-0.00428366
-0.00439514
-0.00450335
-0.00394668
-0.004057
-0.00416967
-0.00428282
-0.00439464
-0.00450315
-0.00394476
-0.00405549
-0.00416852
-0.00428198
-0.00439407
-0.00450282
-0.00394312
-0.00405417
-0.00416748
-0.00428119
-0.00439349
-0.00450242
-0.00394178
-0.00405309
-0.00416661
-0.0042805
-0.00439296
-0.00450202
-0.00400141
-0.00408927
-0.00418001
-0.00427149
-0.00436157
-0.00444805
-0.00399927
-0.0040877
-0.00417897
-0.00427091
-0.00436144
-0.00444834
-0.00399727
-0.0040862
-0.0041779
-0.00427024
-0.00436114
-0.00444837
-0.00399546
-0.0040848
-0.00417687
-0.00426953
-0.00436072
-0.00444821
-0.0039938
-0.00408349
-0.00417587
-0.00426882
-0.00436025
-0.00444796
-0.00399237
-0.00408234
-0.00417498
-0.00426814
-0.00435977
-0.00444766
-0.00399119
-0.00408139
-0.00417422
-0.00426756
-0.00435933
-0.00444735
-0.00499296
-0.00522053
-0.00545267
-0.0056864
-0.00591299
-0.0060581
-0.00603591
-0.00499455
-0.00522313
-0.00545606
-0.00568979
-0.0059198
-0.00607403
-0.00604421
-0.00499453
-0.00522331
-0.00545618
-0.00568911
-0.00591845
-0.00607516
-0.00604823
-0.00499352
-0.0052221
-0.00545455
-0.00568676
-0.00591552
-0.00607338
-0.00604891
-0.00499216
-0.00522047
-0.00545252
-0.00568425
-0.00591281
-0.00607153
-0.00604869
-0.00499073
-0.00521879
-0.00545051
-0.0056819
-0.00591038
-0.00606972
-0.0060481
-0.00498942
-0.00521727
-0.00544875
-0.00567995
-0.00590841
-0.0060682
-0.00604747
-0.00488771
-0.00507348
-0.00525445
-0.00542481
-0.00557432
-0.005652
-0.0056053
-0.00488923
-0.00507599
-0.00525795
-0.00542904
-0.00558154
-0.00566612
-0.00561471
-0.00488954
-0.0050767
-0.00525898
-0.00543013
-0.00558306
-0.00567018
-0.00562093
-0.00488904
-0.00507628
-0.00525856
-0.00542961
-0.00558269
-0.00567105
-0.00562364
-0.0048882
-0.00507542
-0.00525763
-0.00542863
-0.00558192
-0.00567115
-0.005625
-0.00488723
-0.00507439
-0.00525652
-0.00542749
-0.00558095
-0.00567082
-0.00562565
-0.00488629
-0.0050734
-0.00525546
-0.00542642
-0.00558002
-0.00567036
-0.00562592
-0.00478561
-0.00493505
-0.00507432
-0.0051969
-0.00529479
-0.00533677
-0.00526569
-0.00478697
-0.00493727
-0.00507745
-0.00520076
-0.00530026
-0.00534586
-0.00527257
-0.00478742
-0.00493817
-0.00507879
-0.00520241
-0.00530244
-0.00534981
-0.00527793
-0.00478724
-0.00493821
-0.00507902
-0.00520281
-0.00530321
-0.00535163
-0.00528102
-0.00478676
-0.00493785
-0.00507877
-0.00520272
-0.00530345
-0.00535267
-0.00528298
-0.00478613
-0.00493728
-0.00507827
-0.00520233
-0.00530334
-0.00535317
-0.00528421
-0.00478549
-0.00493667
-0.0050777
-0.00520186
-0.00530307
-0.00535335
-0.00528495
-0.00469051
-0.00480899
-0.00491475
-0.00500184
-0.00506367
-0.00507736
-0.00501636
-0.00469164
-0.00481082
-0.00491732
-0.00500497
-0.00506793
-0.00508437
-0.00501962
-0.00469211
-0.00481172
-0.00491864
-0.00500665
-0.00507008
-0.00508765
-0.00502334
-0.0046921
-0.00481198
-0.00491915
-0.00500742
-0.00507122
-0.00508953
-0.00502599
-0.00469185
-0.00481191
-0.00491927
-0.00500776
-0.00507191
-0.0050908
-0.00502792
-0.00469146
-0.00481165
-0.00491914
-0.00500781
-0.00507223
-0.0050916
-0.00502929
-0.00469103
-0.0048113
-0.0049189
-0.0050077
-0.00507234
-0.00509206
-0.00503022
-0.00460448
-0.004697
-0.00477603
-0.00483661
-0.0048739
-0.00487101
-0.00481225
-0.00460538
-0.00469846
-0.00477805
-0.004839
-0.00487704
-0.00487608
-0.00481316
-0.0046058
-0.00469925
-0.00477921
-0.00484045
-0.00487881
-0.00487856
-0.00481556
-0.00460588
-0.00469958
-0.00477979
-0.00484128
-0.00487993
-0.00488017
-0.00481759
-0.00460576
-0.00469966
-0.00478007
-0.00484177
-0.00488071
-0.00488137
-0.00481921
-0.00460552
-0.00469957
-0.00478013
-0.00484202
-0.00488119
-0.0048822
-0.00482045
-0.00460524
-0.0046994
-0.00478008
-0.0048421
-0.00488147
-0.00488276
-0.00482136
-0.00452833
-0.0045993
-0.00465709
-0.00469772
-0.00471777
-0.00470435
-0.00464669
-0.00452903
-0.00460043
-0.00465862
-0.00469945
-0.00471995
-0.00470789
-0.00464631
-0.00452938
-0.00460108
-0.00465956
-0.00470058
-0.00472126
-0.00470962
-0.0046477
-0.00452947
-0.0046014
-0.00466009
-0.00470131
-0.00472218
-0.00471083
-0.00464909
-0.00452941
-0.00460153
-0.0046604
-0.0047018
-0.00472288
-0.00471181
-0.0046503
-0.00452926
-0.00460152
-0.00466054
-0.00470209
-0.00472337
-0.00471254
-0.0046513
-0.00452907
-0.00460144
-0.00466057
-0.00470226
-0.00472369
-0.00471307
-0.00465208
-0.0022417
-0.00231333
-0.00252379
-0.00277744
-0.00302079
-0.00325593
-0.00348443
-0.00223894
-0.00231126
-0.00252223
-0.00277619
-0.00301973
-0.003255
-0.0034836
-0.00223758
-0.00231023
-0.00252145
-0.00277556
-0.0030192
-0.00325454
-0.00348318
-0.00223758
-0.00231023
-0.00252145
-0.00277556
-0.00301921
-0.00325454
-0.00348319
-0.00223894
-0.00231126
-0.00252223
-0.00277619
-0.00301973
-0.003255
-0.0034836
-0.00224171
-0.00231334
-0.00252379
-0.00277745
-0.0030208
-0.00325593
-0.00348444
-0.00268807
-0.00270146
-0.00283198
-0.00301028
-0.00319605
-0.00338567
-0.0035766
-0.00268509
-0.0026991
-0.00283015
-0.0030088
-0.00319482
-0.00338463
-0.00357571
-0.00268364
-0.00269795
-0.00282925
-0.00300807
-0.00319422
-0.00338412
-0.00357526
-0.00268364
-0.00269795
-0.00282925
-0.00300807
-0.00319422
-0.00338412
-0.00357526
-0.00268509
-0.00269911
-0.00283015
-0.00300881
-0.00319482
-0.00338463
-0.00357571
-0.00268807
-0.00270146
-0.00283198
-0.00301028
-0.00319605
-0.00338567
-0.0035766
-0.00304603
-0.00301806
-0.00310023
-0.00322273
-0.00336123
-0.00351115
-0.00366774
-0.00304304
-0.0030156
-0.0030983
-0.00322117
-0.00335994
-0.00351007
-0.00366683
-0.0030416
-0.00301439
-0.00309736
-0.0032204
-0.00335931
-0.00350954
-0.00366638
-0.0030416
-0.00301439
-0.00309736
-0.0032204
-0.00335931
-0.00350954
-0.00366638
-0.00304305
-0.0030156
-0.00309831
-0.00322117
-0.00335995
-0.00351007
-0.00366683
-0.00304604
-0.00301806
-0.00310023
-0.00322274
-0.00336123
-0.00351115
-0.00366774
-0.00332085
-0.00328553
-0.00332817
-0.00341004
-0.00351161
-0.00362804
-0.00375421
-0.00331812
-0.00328325
-0.00332631
-0.00340852
-0.00351035
-0.00362699
-0.00375334
-0.00331678
-0.00328213
-0.0033254
-0.00340776
-0.00350972
-0.00362647
-0.0037529
-0.00331678
-0.00328213
-0.0033254
-0.00340776
-0.00350972
-0.00362647
-0.0037529
-0.00331812
-0.00328325
-0.00332632
-0.00340852
-0.00351035
-0.00362699
-0.00375334
-0.00332085
-0.00328553
-0.00332817
-0.00341005
-0.00351162
-0.00362804
-0.00375421
-0.0035442
-0.00350109
-0.00351922
-0.00357222
-0.00364506
-0.00373378
-0.00383366
-0.00354182
-0.00349907
-0.00351754
-0.00357081
-0.00364388
-0.0037328
-0.00383285
-0.00354065
-0.00349807
-0.0035167
-0.00357011
-0.0036433
-0.00373231
-0.00383244
-0.00354065
-0.00349807
-0.0035167
-0.00357011
-0.0036433
-0.00373231
-0.00383244
-0.00354182
-0.00349907
-0.00351754
-0.00357081
-0.00364388
-0.0037328
-0.00383285
-0.0035442
-0.00350109
-0.00351923
-0.00357222
-0.00364506
-0.00373378
-0.00383366
-0.00372481
-0.00367676
-0.00367859
-0.00371066
-0.00376122
-0.00382732
-0.00390489
-0.00372281
-0.00367503
-0.00367713
-0.00370942
-0.00376018
-0.00382644
-0.00390416
-0.00372182
-0.00367418
-0.0036764
-0.0037088
-0.00375965
-0.003826
-0.00390379
-0.00372182
-0.00367418
-0.0036764
-0.0037088
-0.00375965
-0.003826
-0.00390379
-0.00372282
-0.00367504
-0.00367713
-0.00370942
-0.00376018
-0.00382644
-0.00390416
-0.00372481
-0.00367676
-0.0036786
-0.00371066
-0.00376123
-0.00382732
-0.00390489
-0.00498836
-0.00521606
-0.00544739
-0.00567848
-0.00590697
-0.00606709
-0.00604696
-0.00498762
-0.00521523
-0.00544647
-0.00567751
-0.00590604
-0.00606637
-0.00604662
-0.00498725
-0.00521481
-0.00544601
-0.00567703
-0.00590558
-0.00606601
-0.00604644
-0.00498724
-0.00521481
-0.00544601
-0.00567703
-0.00590558
-0.00606601
-0.00604644
-0.00498762
-0.00521523
-0.00544647
-0.0056775
-0.00590603
-0.00606636
-0.00604661
-0.00498835
-0.00521605
-0.00544738
-0.00567847
-0.00590696
-0.00606707
-0.00604694
-0.00488551
-0.00507257
-0.00525459
-0.00542555
-0.00557927
-0.00566993
-0.00562601
-0.00488495
-0.00507198
-0.00525398
-0.00542496
-0.00557875
-0.00566963
-0.00562603
-0.00488466
-0.00507168
-0.00525367
-0.00542465
-0.00557849
-0.00566947
-0.00562603
-0.00488466
-0.00507168
-0.00525367
-0.00542465
-0.00557849
-0.00566946
-0.00562603
-0.00488495
-0.00507197
-0.00525398
-0.00542495
-0.00557874
-0.00566962
-0.00562602
-0.0048855
-0.00507256
-0.00525458
-0.00542554
-0.00557925
-0.00566992
-0.005626
-0.00478493
-0.00493614
-0.00507719
-0.00520142
-0.00530279
-0.00535339
-0.0052854
-0.00478452
-0.00493574
-0.00507682
-0.0052011
-0.00530258
-0.00535338
-0.00528565
-0.00478431
-0.00493554
-0.00507663
-0.00520093
-0.00530246
-0.00535336
-0.00528576
-0.00478431
-0.00493554
-0.00507663
-0.00520093
-0.00530246
-0.00535336
-0.00528576
-0.00478452
-0.00493574
-0.00507682
-0.0052011
-0.00530257
-0.00535337
-0.00528564
-0.00478492
-0.00493613
-0.00507719
-0.00520141
-0.00530278
-0.00535337
-0.00528538
-0.00469064
-0.00481098
-0.00491864
-0.00500754
-0.00507234
-0.00509233
-0.00503083
-0.00469036
-0.00481073
-0.00491844
-0.00500741
-0.00507231
-0.00509247
-0.0050312
-0.0046902
-0.00481059
-0.00491833
-0.00500733
-0.00507229
-0.00509253
-0.00503137
-0.0046902
-0.00481059
-0.00491832
-0.00500733
-0.00507228
-0.00509253
-0.00503137
-0.00469035
-0.00481072
-0.00491843
-0.0050074
-0.0050723
-0.00509246
-0.00503119
-0.00469064
-0.00481097
-0.00491863
-0.00500753
-0.00507233
-0.00509231
-0.00503082
-0.00460497
-0.00469921