/*--------------------------------*- C++ -*----------------------------------*\
  =========                 |
  \\      /  F ield         | OpenFOAM: The Open Source CFD Toolbox
   \\    /   O peration     | Website:  https://openfoam.org
    \\  /    A nd           | Version:  7
     \\/     M anipulation  |
\*---------------------------------------------------------------------------*/
FoamFile
{
    version     2.0;
    format      ascii;
    class       volVectorField;
    location    "2";
    object      U;
}
// * * * * * * * * * * * * * * * * * * * * * * * * * * * * * * * * * * * * * //

dimensions      [0 1 -1 0 0 0 0];

internalField   nonuniform List<vector> 
7784
(
(0.982451 -0.000129039 -0.00033729)
(0.982445 -0.000103265 -0.000260688)
(0.982539 -5.37511e-05 -0.000108685)
(0.982662 -2.49877e-05 -3.26871e-05)
(0.982706 -1.36802e-05 -9.95601e-06)
(0.982717 -8.24245e-06 -2.60956e-06)
(0.982724 -4.9992e-06 -2.01633e-07)
(0.982485 -0.000123811 -0.000280715)
(0.982501 -9.84684e-05 -0.000217668)
(0.982588 -5.30937e-05 -9.13535e-05)
(0.982685 -2.73047e-05 -2.77363e-05)
(0.982714 -1.66313e-05 -8.24655e-06)
(0.982721 -1.07315e-05 -1.83254e-06)
(0.982727 -6.85772e-06 1.30773e-07)
(0.982502 -6.08713e-05 -0.000258093)
(0.982524 -5.04877e-05 -0.000200204)
(0.982609 -3.36701e-05 -8.28759e-05)
(0.982696 -2.18713e-05 -2.44278e-05)
(0.982721 -1.49196e-05 -6.81291e-06)
(0.982725 -1.02287e-05 -1.14231e-06)
(0.98273 -6.9348e-06 4.58253e-07)
(0.982509 -3.68389e-05 -0.000249819)
(0.982534 -3.19963e-05 -0.00019349)
(0.982619 -2.40937e-05 -7.90012e-05)
(0.982704 -1.74207e-05 -2.25246e-05)
(0.982726 -1.25977e-05 -5.86424e-06)
(0.982729 -9.04149e-06 -6.47454e-07)
(0.982732 -6.40072e-06 7.2089e-07)
(0.982513 -2.51666e-05 -0.00024644)
(0.98254 -2.23591e-05 -0.000190628)
(0.982625 -1.78644e-05 -7.71374e-05)
(0.982709 -1.36756e-05 -2.1471e-05)
(0.982729 -1.03198e-05 -5.27896e-06)
(0.982732 -7.67819e-06 -3.12521e-07)
(0.982735 -5.6087e-06 9.16042e-07)
(0.982516 -1.74215e-05 -0.000244995)
(0.982543 -1.57153e-05 -0.000189367)
(0.982628 -1.30629e-05 -7.62346e-05)
(0.982712 -1.04294e-05 -2.08954e-05)
(0.982732 -8.14229e-06 -4.92268e-06)
(0.982734 -6.23008e-06 -8.96703e-08)
(0.982736 -4.66088e-06 1.0561e-06)
(0.982517 -1.19703e-05 -0.000244351)
(0.982545 -1.09316e-05 -0.000188781)
(0.98263 -9.32713e-06 -7.57784e-05)
(0.982714 -7.65941e-06 -2.05725e-05)
(0.982734 -6.1251e-06 -4.70372e-06)
(0.982735 -4.78347e-06 5.75322e-08)
(0.982737 -3.64273e-06 1.15434e-06)
(0.327747 -0.00012532 -0.000619007)
(0.327706 -0.000102112 -0.0004693)
(0.327788 -6.05593e-05 -0.000211817)
(0.327918 -3.28315e-05 -8.90128e-05)
(0.327992 -1.93246e-05 -4.59385e-05)
(0.328036 -1.18979e-05 -2.56458e-05)
(0.328068 -7.36683e-06 -1.51197e-05)
(0.32778 -0.000128406 -0.000524248)
(0.327753 -0.000104732 -0.000399759)
(0.327829 -6.51687e-05 -0.000183977)
(0.32794 -3.85916e-05 -8.03868e-05)
(0.328002 -2.45426e-05 -4.24217e-05)
(0.328042 -1.59319e-05 -2.39175e-05)
(0.328071 -1.02863e-05 -1.4336e-05)
(0.327801 -8.43265e-05 -0.000481938)
(0.32778 -7.09238e-05 -0.000368076)
(0.327853 -5.03283e-05 -0.000168382)
(0.327956 -3.42518e-05 -7.36303e-05)
(0.328012 -2.35522e-05 -3.90792e-05)
(0.328049 -1.61081e-05 -2.21681e-05)
(0.328076 -1.08948e-05 -1.34399e-05)
(0.327813 -5.86075e-05 -0.000463927)
(0.327795 -5.08317e-05 -0.000353783)
(0.327868 -3.89887e-05 -0.000159956)
(0.327968 -2.85761e-05 -6.91362e-05)
(0.328021 -2.0672e-05 -3.66052e-05)
(0.328055 -1.47492e-05 -2.07749e-05)
(0.32808 -1.03526e-05 -1.2653e-05)
(0.32782 -4.21376e-05 -0.000455237)
(0.327804 -3.72646e-05 -0.000346592)
(0.327878 -2.99324e-05 -0.000155218)
(0.327976 -2.30023e-05 -6.62951e-05)
(0.328027 -1.73039e-05 -3.4902e-05)
(0.328059 -1.27721e-05 -1.97413e-05)
(0.328084 -9.2287e-06 -1.20247e-05)
(0.327824 -2.99837e-05 -0.000450893)
(0.32781 -2.69179e-05 -0.000342894)
(0.327884 -2.236e-05 -0.000152571)
(0.327981 -1.78166e-05 -6.45457e-05)
(0.328031 -1.38295e-05 -3.37635e-05)
(0.328063 -1.04865e-05 -1.9002e-05)
(0.328087 -7.75344e-06 -1.15483e-05)
(0.327826 -2.08801e-05 -0.000448648)
(0.327813 -1.89722e-05 -0.000340923)
(0.327888 -1.61354e-05 -0.000151061)
(0.327985 -1.31914e-05 -6.34666e-05)
(0.328034 -1.04789e-05 -3.30132e-05)
(0.328065 -8.10888e-06 -1.84878e-05)
(0.328089 -6.10156e-06 -1.12012e-05)
(0.0818112 -7.30325e-05 -0.00053058)
(0.0817367 -6.29886e-05 -0.000426151)
(0.0817512 -4.27166e-05 -0.000256488)
(0.0818221 -2.64007e-05 -0.000155593)
(0.0818766 -1.6763e-05 -0.000100454)
(0.0819169 -1.08213e-05 -6.56947e-05)
(0.0819478 -6.97071e-06 -4.34566e-05)
(0.0818238 -8.27792e-05 -0.000473679)
(0.0817564 -7.11862e-05 -0.000384029)
(0.0817718 -5.00136e-05 -0.000236525)
(0.0818358 -3.28761e-05 -0.000147223)
(0.0818846 -2.20267e-05 -9.62673e-05)
(0.0819221 -1.47922e-05 -6.34764e-05)
(0.0819511 -9.83665e-06 -4.2326e-05)
(0.0818353 -6.67679e-05 -0.00044071)
(0.0817726 -5.76528e-05 -0.000358769)
(0.0817882 -4.34151e-05 -0.000222112)
(0.0818481 -3.10492e-05 -0.000139527)
(0.0818931 -2.19918e-05 -9.19176e-05)
(0.081928 -1.53822e-05 -6.10103e-05)
(0.0819553 -1.05919e-05 -4.0948e-05)
(0.0818432 -5.15812e-05 -0.000422708)
(0.0817835 -4.52256e-05 -0.00034421)
(0.0817996 -3.57689e-05 -0.000212637)
(0.0818575 -2.69757e-05 -0.000133774)
(0.0819003 -1.99068e-05 -8.84178e-05)
(0.0819334 -1.44165e-05 -5.8895e-05)
(0.0819593 -1.02295e-05 -3.96802e-05)
(0.0818485 -3.92229e-05 -0.000412197)
(0.0817909 -3.48904e-05 -0.000335429)
(0.0818075 -2.85579e-05 -0.000206469)
(0.0818644 -2.23593e-05 -0.00012973)
(0.0819059 -1.70475e-05 -8.58024e-05)
(0.0819378 -1.27051e-05 -5.72208e-05)
(0.0819628 -9.24044e-06 -3.8621e-05)
(0.0818519 -2.90358e-05 -0.000406095)
(0.0817957 -2.61464e-05 -0.000330209)
(0.0818128 -2.19617e-05 -0.000202575)
(0.0818694 -1.76998e-05 -0.000127)
(0.0819102 -1.38551e-05 -8.39324e-05)
(0.0819413 -1.05692e-05 -5.59616e-05)
(0.0819656 -7.84297e-06 -3.77878e-05)
(0.0818541 -2.07634e-05 -0.000402536)
(0.0817988 -1.88842e-05 -0.000327092)
(0.0818163 -1.61625e-05 -0.000200135)
(0.0818728 -1.33047e-05 -0.000125197)
(0.0819132 -1.0624e-05 -8.26374e-05)
(0.0819439 -8.25072e-06 -5.5053e-05)
(0.0819678 -6.21891e-06 -3.71644e-05)
(0.98273 -3.06859e-06 1.45764e-07)
(0.982733 -1.86553e-06 -1.67974e-07)
(0.982736 -1.03359e-06 -6.69393e-07)
(0.982738 -3.81543e-07 -1.27872e-06)
(0.98274 2.16385e-07 -2.09908e-06)
(0.982742 8.77105e-07 -3.10453e-06)
(0.982731 -4.38918e-06 2.85412e-07)
(0.982734 -2.75659e-06 -1.01518e-07)
(0.982737 -1.57991e-06 -6.34156e-07)
(0.982739 -6.40399e-07 -1.26072e-06)
(0.982741 2.13692e-07 -2.08596e-06)
(0.982743 1.12051e-06 -3.10682e-06)
(0.982733 -4.64896e-06 4.43122e-07)
(0.982736 -3.01592e-06 -2.16861e-08)
(0.982738 -1.78101e-06 -5.93837e-07)
(0.98274 -7.71313e-07 -1.24444e-06)
(0.982742 1.46594e-07 -2.08774e-06)
(0.982744 1.09007e-06 -3.13444e-06)
(0.982735 -4.44126e-06 5.84846e-07)
(0.982737 -2.95992e-06 5.55971e-08)
(0.982739 -1.79516e-06 -5.53616e-07)
(0.982741 -8.21518e-07 -1.22882e-06)
(0.982743 6.55912e-08 -2.09313e-06)
(0.982745 9.56493e-07 -3.164e-06)
(0.982737 -3.99326e-06 6.98991e-07)
(0.982738 -2.71924e-06 1.21699e-07)
(0.98274 -1.68527e-06 -5.17582e-07)
(0.982742 -8.0395e-07 -1.21397e-06)
(0.982743 2.26312e-09 -2.09663e-06)
(0.982746 8.00451e-07 -3.18546e-06)
(0.982738 -3.38575e-06 7.86253e-07)
(0.98274 -2.34555e-06 1.74823e-07)
(0.982741 -1.47903e-06 -4.87439e-07)
(0.982742 -7.28134e-07 -1.20077e-06)
(0.982744 -3.80145e-08 -2.09815e-06)
(0.982746 6.39451e-07 -3.20022e-06)
(0.982739 -2.68667e-06 8.50527e-07)
(0.98274 -1.88604e-06 2.15488e-07)
(0.982742 -1.20536e-06 -4.63569e-07)
(0.982743 -6.07595e-07 -1.18975e-06)
(0.982745 -5.5769e-08 -2.0984e-06)
(0.982747 4.83022e-07 -3.21012e-06)
(0.328089 -4.57302e-06 -9.67479e-06)
(0.328104 -2.75503e-06 -6.4838e-06)
(0.328112 -1.45447e-06 -4.33825e-06)
(0.328115 -3.97942e-07 -2.73064e-06)
(0.328114 6.25969e-07 -1.35141e-06)
(0.328107 1.80211e-06 1.71931e-07)
(0.328092 -6.6009e-06 -9.3217e-06)
(0.328105 -4.08446e-06 -6.31391e-06)
(0.328113 -2.22394e-06 -4.25654e-06)
(0.328116 -6.91964e-07 -2.70233e-06)
(0.328115 7.73171e-07 -1.36733e-06)
(0.328109 2.39957e-06 7.77351e-08)
(0.328095 -7.24478e-06 -8.85668e-06)
(0.328107 -4.60269e-06 -6.06918e-06)
(0.328115 -2.57202e-06 -4.13661e-06)
(0.328117 -8.66712e-07 -2.6676e-06)
(0.328116 7.4901e-07 -1.40987e-06)
(0.328111 2.49332e-06 -7.40963e-08)
(0.328098 -7.08894e-06 -8.40988e-06)
(0.32811 -4.60987e-06 -5.8187e-06)
(0.328116 -2.63747e-06 -4.00875e-06)
(0.328119 -9.49995e-07 -2.62902e-06)
(0.328118 6.43828e-07 -1.45313e-06)
(0.328112 2.32439e-06 -2.20074e-07)
(0.328101 -6.47044e-06 -8.03026e-06)
(0.328112 -4.29079e-06 -5.59539e-06)
(0.328118 -2.5046e-06 -3.88999e-06)
(0.328121 -9.50885e-07 -2.58964e-06)
(0.328119 5.15957e-07 -1.48636e-06)
(0.328114 2.03478e-06 -3.37029e-07)
(0.328103 -5.5408e-06 -7.7279e-06)
(0.328114 -3.73398e-06 -5.41033e-06)
(0.32812 -2.21623e-06 -3.78805e-06)
(0.328122 -8.77138e-07 -2.553e-06)
(0.328121 3.87896e-07 -1.50938e-06)
(0.328116 1.67939e-06 -4.25234e-07)
(0.328105 -4.42528e-06 -7.499e-06)
(0.328115 -3.02037e-06 -5.26577e-06)
(0.328121 -1.81676e-06 -3.7061e-06)
(0.328123 -7.42582e-07 -2.52162e-06)
(0.328122 2.73197e-07 -1.52428e-06)
(0.328117 1.29933e-06 -4.88808e-07)
(0.0819696 -4.44441e-06 -2.86764e-05)
(0.0819837 -2.70823e-06 -1.80092e-05)
(0.0819915 -1.41446e-06 -9.57782e-06)
(0.0819935 -3.32075e-07 -2.19346e-06)
(0.0819897 7.27141e-07 5.20425e-06)
(0.0819799 1.93536e-06 1.35759e-05)
(0.0819718 -6.43516e-06 -2.80958e-05)
(0.0819853 -4.00964e-06 -1.77099e-05)
(0.0819927 -2.15676e-06 -9.43774e-06)
(0.0819945 -5.93109e-07 -2.16022e-06)
(0.0819908 9.20258e-07 5.12343e-06)
(0.0819812 2.59612e-06 1.3338e-05)
(0.0819748 -7.12059e-06 -2.73243e-05)
(0.0819875 -4.53286e-06 -1.72857e-05)
(0.0819944 -2.49498e-06 -9.22973e-06)
(0.081996 -7.49566e-07 -2.10922e-06)
(0.0819924 9.28116e-07 5.01904e-06)
(0.0819831 2.74254e-06 1.3033e-05)
(0.0819778 -7.04553e-06 -2.65702e-05)
(0.0819898 -4.57528e-06 -1.68513e-05)
(0.0819963 -2.57266e-06 -9.00823e-06)
(0.0819978 -8.31387e-07 -2.04926e-06)
(0.0819941 8.35674e-07 4.92261e-06)
(0.081985 2.60022e-06 1.27465e-05)
(0.0819805 -6.4954e-06 -2.59107e-05)
(0.081992 -4.29134e-06 -1.64569e-05)
(0.0819982 -2.45828e-06 -8.79999e-06)
(0.0819994 -8.42264e-07 -1.98713e-06)
(0.0819958 7.01578e-07 4.84482e-06)
(0.0819868 2.30713e-06 1.25062e-05)
(0.0819828 -5.60678e-06 -2.53717e-05)
(0.0819939 -3.75831e-06 -1.61242e-05)
(0.0819998 -2.18717e-06 -8.61901e-06)
(0.0820009 -7.85391e-07 -1.92866e-06)
(0.0819973 5.52386e-07 4.78658e-06)
(0.0819884 1.92414e-06 1.23173e-05)
(0.0819846 -4.50523e-06 -2.49557e-05)
(0.0819954 -3.05517e-06 -1.58607e-05)
(0.0820011 -1.80089e-06 -8.47205e-06)
(0.0820022 -6.70892e-07 -1.87808e-06)
(0.0819985 4.07084e-07 4.74562e-06)
(0.0819897 1.5006e-06 1.21768e-05)
(0.982743 1.75467e-06 -4.15144e-06)
(0.982744 3.11905e-06 -4.59035e-06)
(0.982744 5.29976e-06 -2.45126e-06)
(0.98273 9.4701e-06 9.17207e-06)
(0.982645 2.27806e-05 5.4563e-05)
(0.982511 5.41385e-05 0.000179223)
(0.982505 7.58363e-05 0.000322284)
(0.982745 2.25587e-06 -4.19529e-06)
(0.982746 3.88359e-06 -4.75983e-06)
(0.982746 6.29731e-06 -2.96087e-06)
(0.982738 1.03347e-05 7.45334e-06)
(0.982669 2.21171e-05 4.759e-05)
(0.98254 5.01967e-05 0.000158516)
(0.982518 7.06023e-05 0.000291712)
(0.982746 2.20311e-06 -4.28804e-06)
(0.982747 3.64876e-06 -4.97906e-06)
(0.982749 5.65556e-06 -3.48745e-06)
(0.982743 8.59107e-06 6.08914e-06)
(0.982678 1.4161e-05 4.37844e-05)
(0.982551 2.46818e-05 0.000149666)
(0.982524 3.31779e-05 0.000279323)
(0.982747 1.95724e-06 -4.36819e-06)
(0.982749 3.18038e-06 -5.14787e-06)
(0.982751 4.7609e-06 -3.83362e-06)
(0.982746 6.91694e-06 5.33989e-06)
(0.982683 1.02214e-05 4.21032e-05)
(0.982556 1.53214e-05 0.000146292)
(0.982528 1.96286e-05 0.000274713)
(0.982748 1.66758e-06 -4.42024e-06)
(0.98275 2.68747e-06 -5.25976e-06)
(0.982752 3.93339e-06 -4.03977e-06)
(0.982748 5.5392e-06 4.94533e-06)
(0.982686 7.74419e-06 4.13295e-05)
(0.982559 1.06921e-05 0.000144901)
(0.98253 1.31926e-05 0.000272856)
(0.982749 1.35908e-06 -4.45518e-06)
(0.982751 2.17818e-06 -5.33337e-06)
(0.982754 3.13642e-06 -4.16395e-06)
(0.98275 4.30451e-06 4.73159e-06)
(0.982688 5.76793e-06 4.09576e-05)
(0.982561 7.5234e-06 0.000144303)
(0.982531 9.00668e-06 0.000272087)
(0.982749 1.04622e-06 -4.47875e-06)
(0.982752 1.67107e-06 -5.38178e-06)
(0.982755 2.37815e-06 -4.23982e-06)
(0.982751 3.20256e-06 4.61277e-06)
(0.982689 4.16818e-06 4.07719e-05)
(0.982562 5.24093e-06 0.000144033)
(0.982532 6.13443e-06 0.000271757)
(0.328096 3.40879e-06 2.67728e-06)
(0.328076 5.89298e-06 8.3444e-06)
(0.328047 9.90017e-06 2.26917e-05)
(0.327998 1.71646e-05 6.06644e-05)
(0.327893 3.41785e-05 0.000166119)
(0.32781 6.43939e-05 0.00040541)
(0.327892 8.2177e-05 0.000654257)
(0.328097 4.49551e-06 2.40741e-06)
(0.328079 7.53803e-06 7.64204e-06)
(0.328052 1.21073e-05 2.0971e-05)
(0.328009 1.95231e-05 5.59694e-05)
(0.327916 3.54323e-05 0.000150555)
(0.327832 6.36822e-05 0.00036467)
(0.3279 8.15391e-05 0.000595969)
(0.3281 4.61276e-06 2.04694e-06)
(0.328082 7.46635e-06 6.8615e-06)
(0.328057 1.14845e-05 1.92819e-05)
(0.328017 1.73108e-05 5.21664e-05)
(0.327928 2.67756e-05 0.000141424)
(0.327845 4.08041e-05 0.000345622)
(0.327906 5.07638e-05 0.000570024)
(0.328102 4.27917e-06 1.73076e-06)
(0.328085 6.74476e-06 6.24362e-06)
(0.328061 1.00109e-05 1.80905e-05)
(0.328022 1.44225e-05 4.98322e-05)
(0.327936 2.05835e-05 0.000136786)
(0.327852 2.84845e-05 0.000337262)
(0.327911 3.43146e-05 0.000559037)
(0.328104 3.74309e-06 1.49018e-06)
(0.328088 5.79124e-06 5.79766e-06)
(0.328064 8.36264e-06 1.73007e-05)
(0.328027 1.16313e-05 4.84289e-05)
(0.327941 1.57982e-05 0.000134298)
(0.327857 2.0644e-05 0.000333203)
(0.327914 2.4259e-05 0.000553845)
(0.328106 3.09267e-06 1.31333e-06)
(0.32809 4.72228e-06 5.48432e-06)
(0.328066 6.67471e-06 1.67822e-05)
(0.328029 9.02123e-06 4.75812e-05)
(0.327945 1.17962e-05 0.000132934)
(0.32786 1.47924e-05 0.000331169)
(0.327916 1.70346e-05 0.000551326)
(0.328107 2.39869e-06 1.18751e-06)
(0.328091 3.62874e-06 5.26914e-06)
(0.328068 5.04835e-06 1.64448e-05)
(0.328031 6.67977e-06 4.70659e-05)
(0.327947 8.50288e-06 0.000132169)
(0.327862 1.03662e-05 0.000330112)
(0.327917 1.17508e-05 0.000550061)
(0.0819628 3.52932e-06 2.44608e-05)
(0.0819367 5.85668e-06 4.07042e-05)
(0.0819004 9.38989e-06 6.78753e-05)
(0.0818496 1.51558e-05 0.000116474)
(0.081776 2.5913e-05 0.000212598)
(0.0817465 4.06549e-05 0.000395424)
(0.0818409 4.64073e-05 0.000577208)
(0.0819646 4.70869e-06 2.39354e-05)
(0.0819394 7.63518e-06 3.95954e-05)
(0.0819046 1.18218e-05 6.5632e-05)
(0.0818572 1.80992e-05 0.000111724)
(0.0817883 2.89863e-05 0.000200254)
(0.0817555 4.39777e-05 0.000367085)
(0.0818428 5.08414e-05 0.000537636)
(0.081967 4.93007e-06 2.33112e-05)
(0.0819427 7.78897e-06 3.83844e-05)
(0.0819092 1.16599e-05 6.33392e-05)
(0.081864 1.69772e-05 0.000107392)
(0.0817975 2.4618e-05 0.000191593)
(0.0817635 3.41529e-05 0.000350936)
(0.0818466 4.0048e-05 0.000515976)
(0.0819694 4.64694e-06 2.27495e-05)
(0.0819458 7.18635e-06 3.7369e-05)
(0.0819132 1.04465e-05 6.15481e-05)
(0.0818692 1.46582e-05 0.000104272)
(0.081804 2.00829e-05 0.000186148)
(0.0817694 2.62921e-05 0.000342048)
(0.0818502 3.05527e-05 0.00050458)
(0.0819715 4.11103e-06 2.22887e-05)
(0.0819484 6.25435e-06 3.65786e-05)
(0.0819164 8.87688e-06 6.02325e-05)
(0.0818732 1.20883e-05 0.000102121)
(0.0818086 1.59362e-05 0.000182687)
(0.0817735 2.00633e-05 0.000336838)
(0.0818529 2.29861e-05 0.000498099)
(0.0819733 3.42549e-06 2.19328e-05)
(0.0819505 5.14674e-06 3.59909e-05)
(0.0819189 7.16657e-06 5.93009e-05)
(0.0818761 9.52395e-06 0.000100686)
(0.0818117 1.21872e-05 0.000180535)
(0.0817764 1.4903e-05 0.000333811)
(0.0818548 1.68503e-05 0.000494436)
(0.0819747 2.67313e-06 2.16712e-05)
(0.0819521 3.97998e-06 3.5571e-05)
(0.0819207 5.46271e-06 5.86607e-05)
(0.0818781 7.12768e-06 9.97455e-05)
(0.0818138 8.92618e-06 0.000179204)
(0.0817782 1.06908e-05 0.00033204)
(0.081856 1.1956e-05 0.00049235)
(0.982518 -7.85362e-06 -0.000244044)
(0.982546 -7.23226e-06 -0.000188491)
(0.982632 -6.27064e-06 -7.55365e-05)
(0.982715 -5.24143e-06 -2.03877e-05)
(0.982735 -4.25944e-06 -4.56979e-06)
(0.982736 -3.37409e-06 1.52568e-07)
(0.982738 -2.60178e-06 1.22063e-06)
(0.982518 -4.46609e-06 -0.000243894)
(0.982547 -4.13348e-06 -0.000188345)
(0.982633 -3.61759e-06 -7.54094e-05)
(0.982716 -3.05599e-06 -2.02856e-05)
(0.982736 -2.50834e-06 -4.49242e-06)
(0.982737 -2.00489e-06 2.09532e-07)
(0.982739 -1.55834e-06 1.26158e-06)
(0.982519 -1.44982e-06 -0.000243832)
(0.982547 -1.34492e-06 -0.000188283)
(0.982633 -1.18214e-06 -7.5354e-05)
(0.982716 -1.00355e-06 -2.02399e-05)
(0.982736 -8.27588e-07 -4.45688e-06)
(0.982737 -6.64293e-07 2.36263e-07)
(0.982739 -5.18258e-07 1.28114e-06)
(0.982519 1.45154e-06 -0.000243832)
(0.982547 1.34698e-06 -0.000188283)
(0.982633 1.18426e-06 -7.5354e-05)
(0.982716 1.00558e-06 -2.02399e-05)
(0.982736 8.29512e-07 -4.45688e-06)
(0.982737 6.66098e-07 2.36257e-07)
(0.982739 5.19951e-07 1.28113e-06)
(0.982518 4.46785e-06 -0.000243894)
(0.982547 4.13558e-06 -0.000188345)
(0.982633 3.61976e-06 -7.54094e-05)
(0.982716 3.05806e-06 -2.02856e-05)
(0.982736 2.51028e-06 -4.49245e-06)
(0.982737 2.00671e-06 2.0951e-07)
(0.982739 1.56004e-06 1.26158e-06)
(0.982518 7.85547e-06 -0.000244044)
(0.982546 7.23451e-06 -0.000188491)
(0.982632 6.27292e-06 -7.55366e-05)
(0.982715 5.24359e-06 -2.03877e-05)
(0.982735 4.26145e-06 -4.56983e-06)
(0.982736 3.37594e-06 1.52529e-07)
(0.982738 2.60349e-06 1.22062e-06)
(0.327828 -1.37666e-05 -0.000447443)
(0.327815 -1.26154e-05 -0.000339835)
(0.32789 -1.08963e-05 -0.000150187)
(0.327987 -9.06248e-06 -6.28068e-05)
(0.328036 -7.31548e-06 -3.25319e-05)
(0.328067 -5.74309e-06 -1.81443e-05)
(0.32809 -4.37617e-06 -1.09612e-05)
(0.327828 -7.8404e-06 -0.000446806)
(0.327817 -7.22304e-06 -0.00033925)
(0.327891 -6.29769e-06 -0.000149701)
(0.327988 -5.29355e-06 -6.24268e-05)
(0.328038 -4.31664e-06 -3.22454e-05)
(0.328068 -3.42021e-06 -1.7934e-05)
(0.328092 -2.62739e-06 -1.08107e-05)
(0.327829 -2.54639e-06 -0.000446529)
(0.327817 -2.35174e-06 -0.000338993)
(0.327892 -2.05953e-06 -0.000149483)
(0.327989 -1.73987e-06 -6.22528e-05)
(0.328038 -1.42569e-06 -3.21117e-05)
(0.328069 -1.13463e-06 -1.78342e-05)
(0.328092 -8.75003e-07 -1.07383e-05)
(0.327829 2.54871e-06 -0.000446529)
(0.327817 2.3545e-06 -0.000338993)
(0.327892 2.06227e-06 -0.000149483)
(0.327989 1.74244e-06 -6.22528e-05)
(0.328038 1.42804e-06 -3.21117e-05)
(0.328069 1.13676e-06 -1.78342e-05)
(0.328092 8.76935e-07 -1.07384e-05)
(0.327828 7.84272e-06 -0.000446806)
(0.327817 7.22583e-06 -0.00033925)
(0.327891 6.30044e-06 -0.000149701)
(0.327988 5.29613e-06 -6.24269e-05)
(0.328038 4.31901e-06 -3.22455e-05)
(0.328068 3.42234e-06 -1.79341e-05)
(0.328092 2.6293e-06 -1.08108e-05)
(0.327828 1.3769e-05 -0.000447443)
(0.327815 1.26182e-05 -0.000339836)
(0.32789 1.08991e-05 -0.000150187)
(0.327987 9.06514e-06 -6.2807e-05)
(0.328036 7.3179e-06 -3.2532e-05)
(0.328067 5.74527e-06 -1.81444e-05)
(0.32809 4.37811e-06 -1.09613e-05)
(0.0818555 -1.3915e-05 -0.000400453)
(0.0818008 -1.27484e-05 -0.000325233)
(0.0818186 -1.10523e-05 -0.000198628)
(0.0818751 -9.23199e-06 -0.00012404)
(0.0819153 -7.47664e-06 -8.17771e-05)
(0.0819458 -5.88177e-06 -5.44302e-05)
(0.0819694 -4.48402e-06 -3.6725e-05)
(0.0818563 -7.99995e-06 -0.000399291)
(0.081802 -7.36389e-06 -0.000324183)
(0.08182 -6.4357e-06 -0.000197757)
(0.0818764 -5.4254e-06 -0.000123352)
(0.0819166 -4.43366e-06 -8.12534e-05)
(0.081947 -3.51709e-06 -5.40426e-05)
(0.0819704 -2.70118e-06 -3.64462e-05)
(0.0818567 -2.60949e-06 -0.00039877)
(0.0818026 -2.40742e-06 -0.000323707)
(0.0818206 -2.11205e-06 -0.000197357)
(0.0818771 -1.78836e-06 -0.000123032)
(0.0819173 -1.46785e-06 -8.10059e-05)
(0.0819476 -1.16912e-06 -5.38569e-05)
(0.0819709 -9.01116e-07 -3.63111e-05)
(0.0818567 2.61194e-06 -0.00039877)
(0.0818026 2.4102e-06 -0.000323707)
(0.0818206 2.11476e-06 -0.000197357)
(0.0818771 1.79086e-06 -0.000123032)
(0.0819173 1.47009e-06 -8.10059e-05)
(0.0819476 1.17109e-06 -5.3857e-05)
(0.0819709 9.02842e-07 -3.63111e-05)
(0.0818563 8.00238e-06 -0.000399291)
(0.081802 7.36666e-06 -0.000324183)
(0.08182 6.4384e-06 -0.000197757)
(0.0818764 5.4279e-06 -0.000123353)
(0.0819166 4.4359e-06 -8.12535e-05)
(0.081947 3.51904e-06 -5.40427e-05)
(0.0819704 2.70289e-06 -3.64462e-05)
(0.0818555 1.39174e-05 -0.000400453)
(0.0818008 1.27512e-05 -0.000325234)
(0.0818186 1.1055e-05 -0.000198629)
(0.0818751 9.23454e-06 -0.00012404)
(0.0819153 7.47892e-06 -8.17773e-05)
(0.0819458 5.88376e-06 -5.44304e-05)
(0.0819694 4.48574e-06 -3.67251e-05)
(0.98274 -1.93986e-06 8.95468e-07)
(0.982741 -1.3749e-06 2.4474e-07)
(0.982742 -8.87323e-07 -4.45989e-07)
(0.982744 -4.54863e-07 -1.18134e-06)
(0.982745 -5.42045e-08 -2.09805e-06)
(0.982747 3.3569e-07 -3.21651e-06)
(0.98274 -1.16999e-06 9.23923e-07)
(0.982741 -8.3438e-07 2.63628e-07)
(0.982743 -5.41872e-07 -4.3444e-07)
(0.982744 -2.80721e-07 -1.17568e-06)
(0.982746 -3.81603e-08 -2.09757e-06)
(0.982748 1.9743e-07 -3.22033e-06)
(0.982741 -3.90337e-07 9.3769e-07)
(0.982742 -2.7911e-07 2.72868e-07)
(0.982743 -1.81685e-07 -4.28728e-07)
(0.982744 -9.44159e-08 -1.17283e-06)
(0.982746 -1.32491e-08 -2.09725e-06)
(0.982748 6.55208e-08 -3.22211e-06)
(0.982741 3.91929e-07 9.37679e-07)
(0.982742 2.80605e-07 2.72859e-07)
(0.982743 1.83123e-07 -4.28736e-07)
(0.982744 9.58145e-08 -1.17284e-06)
(0.982746 1.46317e-08 -2.09726e-06)
(0.982748 -6.41365e-08 -3.22211e-06)
(0.98274 1.17158e-06 9.23901e-07)
(0.982741 8.35874e-07 2.63605e-07)
(0.982743 5.43297e-07 -4.34461e-07)
(0.982744 2.82098e-07 -1.17569e-06)
(0.982746 3.95178e-08 -2.09758e-06)
(0.982748 -1.9607e-07 -3.22033e-06)
(0.98274 1.94145e-06 8.95455e-07)
(0.982741 1.37638e-06 2.44723e-07)
(0.982742 8.88726e-07 -4.46013e-07)
(0.982744 4.5622e-07 -1.18136e-06)
(0.982745 5.55314e-08 -2.09805e-06)
(0.982747 -3.34372e-07 -3.21649e-06)
(0.328106 -3.20821e-06 -7.33606e-06)
(0.328116 -2.21031e-06 -5.1604e-06)
(0.328122 -1.34282e-06 -3.64503e-06)
(0.328124 -5.6196e-07 -2.49712e-06)
(0.328123 1.77213e-07 -1.5333e-06)
(0.328118 9.18399e-07 -5.3223e-07)
(0.328107 -1.93965e-06 -7.23184e-06)
(0.328117 -1.34455e-06 -5.09188e-06)
(0.328123 -8.22211e-07 -3.60469e-06)
(0.328125 -3.49349e-07 -2.4804e-06)
(0.328123 9.86127e-08 -1.53827e-06)
(0.328118 5.45691e-07 -5.59118e-07)
(0.328108 -6.48101e-07 -7.18111e-06)
(0.328117 -4.50522e-07 -5.0582e-06)
(0.328123 -2.76256e-07 -3.58467e-06)
(0.328125 -1.18038e-07 -2.47194e-06)
(0.328124 3.1901e-08 -1.54045e-06)
(0.328119 1.81214e-07 -5.71953e-07)
(0.328108 6.49833e-07 -7.18113e-06)
(0.328117 4.52083e-07 -5.05821e-06)
(0.328123 2.77694e-07 -3.58468e-06)
(0.328125 1.19382e-07 -2.47196e-06)
(0.328124 -3.06543e-08 -1.54047e-06)
(0.328119 -1.80017e-07 -5.71951e-07)
(0.328107 1.94137e-06 -7.23189e-06)
(0.328117 1.34611e-06 -5.09192e-06)
(0.328123 8.23632e-07 -3.60473e-06)
(0.328125 3.50655e-07 -2.48044e-06)
(0.328123 -9.73923e-08 -1.53828e-06)
(0.328118 -5.44507e-07 -5.59088e-07)
(0.328106 3.20994e-06 -7.3361e-06)
(0.328116 2.21186e-06 -5.16045e-06)
(0.328122 1.34423e-06 -3.64508e-06)
(0.328124 5.63246e-07 -2.49716e-06)
(0.328123 -1.75995e-07 -1.53328e-06)
(0.328118 -9.17216e-07 -5.32159e-07)
(0.081986 -3.28034e-06 -2.46555e-05)
(0.0819966 -2.24388e-06 -1.56667e-05)
(0.0820022 -1.33553e-06 -8.36176e-06)
(0.0820031 -5.11162e-07 -1.83827e-06)
(0.0819994 2.75217e-07 4.71856e-06)
(0.0819907 1.06677e-06 1.20786e-05)
(0.0819869 -1.98879e-06 -2.44618e-05)
(0.0819974 -1.36822e-06 -1.55397e-05)
(0.0820029 -8.19595e-07 -8.28852e-06)
(0.0820038 -3.19254e-07 -1.81092e-06)
(0.0820001 1.5807e-07 4.70238e-06)
(0.0819913 6.36157e-07 1.20167e-05)
(0.0819873 -6.65505e-07 -2.4367e-05)
(0.0819978 -4.59074e-07 -1.5477e-05)
(0.0820032 -2.75765e-07 -8.25207e-06)
(0.0820041 -1.08195e-07 -1.79706e-06)
(0.0820004 5.16718e-08 4.69483e-06)
(0.0819916 2.11433e-07 1.19869e-05)
(0.0819873 6.67008e-07 -2.43671e-05)
(0.0819978 4.60363e-07 -1.5477e-05)
(0.0820032 2.76912e-07 -8.2521e-06)
(0.0820041 1.09182e-07 -1.79708e-06)
(0.0820004 -5.08329e-08 4.69481e-06)
(0.0819916 -2.10675e-07 1.19869e-05)
(0.0819869 1.99029e-06 -2.44619e-05)
(0.0819974 1.36951e-06 -1.55397e-05)
(0.0820029 8.20713e-07 -8.28858e-06)
(0.0820038 3.20211e-07 -1.81099e-06)
(0.0820001 -1.57229e-07 4.70233e-06)
(0.0819913 -6.35389e-07 1.20167e-05)
(0.081986 3.28184e-06 -2.46556e-05)
(0.0819966 2.24517e-06 -1.56668e-05)
(0.0820022 1.33663e-06 -8.36185e-06)
(0.0820031 5.1211e-07 -1.83835e-06)
(0.0819994 -2.74375e-07 4.71851e-06)
(0.0819907 -1.066e-06 1.20786e-05)
(0.98275 7.38723e-07 -4.49423e-06)
(0.982752 1.17773e-06 -5.41297e-06)
(0.982755 1.66273e-06 -4.28605e-06)
(0.982751 2.21048e-06 4.54542e-06)
(0.98269 2.82415e-06 4.0675e-05)
(0.982563 3.4728e-06 0.000143904)
(0.982533 4.00398e-06 0.000271606)
(0.98275 4.39238e-07 -4.50362e-06)
(0.982753 6.99526e-07 -5.43166e-06)
(0.982756 9.82624e-07 -4.31277e-06)
(0.982752 1.29579e-06 4.50833e-06)
(0.98269 1.63713e-06 4.06246e-05)
(0.982563 1.98728e-06 0.000143841)
(0.982533 2.27034e-06 0.000271535)
(0.98275 1.46094e-07 -4.50805e-06)
(0.982753 2.32316e-07 -5.44043e-06)
(0.982756 3.25374e-07 -4.32507e-06)
(0.982752 4.2727e-07 4.49172e-06)
(0.982691 5.36864e-07 4.06027e-05)
(0.982564 6.47742e-07 0.000143814)
(0.982533 7.36819e-07 0.000271506)
(0.98275 -1.44702e-07 -4.50805e-06)
(0.982753 -2.30924e-07 -5.44042e-06)
(0.982756 -3.23979e-07 -4.32506e-06)
(0.982752 -4.25868e-07 4.49172e-06)
(0.982691 -5.35444e-07 4.06027e-05)
(0.982564 -6.46194e-07 0.000143814)
(0.982533 -7.34984e-07 0.000271506)
(0.98275 -4.37871e-07 -4.50359e-06)
(0.982753 -6.98157e-07 -5.43163e-06)
(0.982756 -9.81249e-07 -4.31274e-06)
(0.982752 -1.29441e-06 4.50835e-06)
(0.98269 -1.63571e-06 4.06246e-05)
(0.982563 -1.98574e-06 0.000143841)
(0.982533 -2.26852e-06 0.000271535)
(0.98275 -7.374e-07 -4.49419e-06)
(0.982752 -1.1764e-06 -5.41292e-06)
(0.982755 -1.66139e-06 -4.286e-06)
(0.982751 -2.20911e-06 4.54546e-06)
(0.98269 -2.82274e-06 4.0675e-05)
(0.982563 -3.47126e-06 0.000143904)
(0.982533 -4.00222e-06 0.000271606)
(0.328108 1.70044e-06 1.10209e-06)
(0.328092 2.55649e-06 5.12675e-06)
(0.328069 3.51763e-06 1.62303e-05)
(0.328033 4.58665e-06 4.67541e-05)
(0.327948 5.73545e-06 0.000131733)
(0.327863 6.8665e-06 0.000329542)
(0.327918 7.69856e-06 0.0005494)
(0.328109 1.01279e-06 1.04929e-06)
(0.328093 1.51686e-06 5.04017e-06)
(0.32807 2.07266e-06 1.61032e-05)
(0.328034 2.67776e-06 4.65756e-05)
(0.327949 3.31207e-06 0.000131492)
(0.327864 3.92226e-06 0.00032924)
(0.327918 4.36755e-06 0.000549058)
(0.328109 3.3647e-07 1.0241e-06)
(0.328093 5.02854e-07 4.99925e-06)
(0.328071 6.84683e-07 1.6044e-05)
(0.328034 8.80555e-07 4.64941e-05)
(0.327949 1.08343e-06 0.000131385)
(0.327864 1.2765e-06 0.000329108)
(0.327919 1.41691e-06 0.000548912)
(0.328109 -3.35298e-07 1.02411e-06)
(0.328093 -5.01688e-07 4.99926e-06)
(0.328071 -6.83499e-07 1.6044e-05)
(0.328034 -8.79328e-07 4.64941e-05)
(0.327949 -1.08211e-06 0.000131385)
(0.327864 -1.27483e-06 0.000329108)
(0.327919 -1.41457e-06 0.000548912)
(0.328109 -1.01162e-06 1.04933e-06)
(0.328093 -1.5157e-06 5.04021e-06)
(0.32807 -2.07148e-06 1.61032e-05)
(0.328034 -2.67651e-06 4.65756e-05)
(0.327949 -3.31072e-06 0.000131492)
(0.327864 -3.92057e-06 0.00032924)
(0.327918 -4.36524e-06 0.000549058)
(0.328108 -1.69927e-06 1.10217e-06)
(0.328092 -2.55531e-06 5.12682e-06)
(0.328069 -3.51641e-06 1.62303e-05)
(0.328033 -4.58535e-06 4.67541e-05)
(0.327948 -5.73401e-06 0.000131732)
(0.327863 -6.86474e-06 0.000329542)
(0.327918 -7.69628e-06 0.0005494)
(0.0819758 1.90291e-06 2.14895e-05)
(0.0819532 2.8157e-06 3.52855e-05)
(0.081922 3.82567e-06 5.8238e-05)
(0.0818795 4.92782e-06 9.91465e-05)
(0.0818152 6.08102e-06 0.00017839)
(0.0817794 7.18181e-06 0.000331)
(0.0818568 7.96704e-06 0.000491153)
(0.0819765 1.13626e-06 2.13755e-05)
(0.0819539 1.67483e-06 3.51088e-05)
(0.0819228 2.26094e-06 5.79817e-05)
(0.0818803 2.88858e-06 9.87923e-05)
(0.081816 3.53193e-06 0.000177922)
(0.0817802 4.13533e-06 0.000330418)
(0.0818573 4.56358e-06 0.000490494)
(0.0819768 3.77763e-07 2.13206e-05)
(0.0819543 5.55693e-07 3.50246e-05)
(0.0819232 7.47741e-07 5.78608e-05)
(0.0818807 9.51482e-07 9.86277e-05)
(0.0818164 1.15824e-06 0.000177708)
(0.0817805 1.35061e-06 0.000330157)
(0.0818575 1.48689e-06 0.000490201)
(0.0819768 -3.77067e-07 2.13206e-05)
(0.0819543 -5.55028e-07 3.50245e-05)
(0.0819232 -7.47074e-07 5.78608e-05)
(0.0818807 -9.50787e-07 9.86276e-05)
(0.0818164 -1.15746e-06 0.000177708)
(0.0817805 -1.3494e-06 0.000330156)
(0.0818575 -1.48487e-06 0.000490201)
(0.0819765 -1.13556e-06 2.13755e-05)
(0.0819539 -1.67416e-06 3.51088e-05)
(0.0819228 -2.26025e-06 5.79816e-05)
(0.0818803 -2.88784e-06 9.87921e-05)
(0.081816 -3.53109e-06 0.000177921)
(0.0817802 -4.13408e-06 0.000330418)
(0.0818573 -4.56159e-06 0.000490494)
(0.0819758 -1.90219e-06 2.14894e-05)
(0.0819532 -2.81498e-06 3.52854e-05)
(0.081922 -3.82491e-06 5.82378e-05)
(0.0818795 -4.927e-06 9.91462e-05)
(0.0818152 -6.08007e-06 0.000178389)
(0.0817794 -7.1805e-06 0.000331)
(0.0818568 -7.96508e-06 0.000491152)
(0.982517 1.19724e-05 -0.000244351)
(0.982545 1.09341e-05 -0.000188781)
(0.98263 9.32966e-06 -7.57785e-05)
(0.982714 7.66175e-06 -2.05726e-05)
(0.982734 6.12724e-06 -4.70379e-06)
(0.982735 4.7854e-06 5.7471e-08)
(0.982737 3.64447e-06 1.15432e-06)
(0.982516 1.74237e-05 -0.000244995)
(0.982543 1.57181e-05 -0.000189367)
(0.982628 1.30658e-05 -7.62348e-05)
(0.982712 1.0432e-05 -2.08956e-05)
(0.982732 8.14459e-06 -4.92279e-06)
(0.982734 6.23209e-06 -8.97802e-08)
(0.982736 4.66265e-06 1.05605e-06)
(0.982513 2.51688e-05 -0.00024644)
(0.98254 2.23623e-05 -0.000190628)
(0.982625 1.78677e-05 -7.71375e-05)
(0.982709 1.36786e-05 -2.14712e-05)
(0.982729 1.03223e-05 -5.27913e-06)
(0.982732 7.68031e-06 -3.12664e-07)
(0.982735 5.61047e-06 9.15942e-07)
(0.982509 3.6841e-05 -0.000249818)
(0.982534 3.19997e-05 -0.00019349)
(0.982619 2.40976e-05 -7.90011e-05)
(0.982704 1.74243e-05 -2.25247e-05)
(0.982726 1.26006e-05 -5.86444e-06)
(0.982729 9.04374e-06 -6.4766e-07)
(0.982732 6.40249e-06 7.20766e-07)
(0.982502 6.08725e-05 -0.000258092)
(0.982524 5.04905e-05 -0.000200203)
(0.982609 3.36742e-05 -8.28754e-05)