/*--------------------------------*- C++ -*----------------------------------*\
  =========                 |
  \\      /  F ield         | OpenFOAM: The Open Source CFD Toolbox
   \\    /   O peration     | Website:  https://openfoam.org
    \\  /    A nd           | Version:  7
     \\/     M anipulation  |
\*---------------------------------------------------------------------------*/
FoamFile
{
    version     2.0;
    format      ascii;
    class       volScalarField;
    location    "0.25";
    object      p;
}
// * * * * * * * * * * * * * * * * * * * * * * * * * * * * * * * * * * * * * //

dimensions      [0 2 -2 0 0 0 0];

internalField   nonuniform List<scalar> 
7784
(
2.09585e-08
-0.0348559
-0.0661071
-0.0918462
-0.10954
-0.117006
-0.113153
-0.0566675
-0.0992957
-0.142582
-0.183913
-0.219971
-0.247361
-0.262965
-0.107905
-0.161087
-0.21876
-0.277531
-0.333316
-0.381285
-0.416067
-0.150252
-0.216152
-0.289832
-0.367449
-0.444052
-0.513109
-0.566614
-0.179683
-0.259856
-0.350494
-0.447512
-0.545055
-0.634566
-0.704716
-0.192657
-0.28775
-0.395035
-0.510384
-0.626976
-0.73366
-0.814391
-0.187007
-0.296076
-0.417709
-0.547836
-0.678436
-0.794668
-0.872592
0.000645383
-0.0346145
-0.0666909
-0.0932057
-0.11157
-0.1197
-0.116459
-0.0565
-0.0999201
-0.144372
-0.187085
-0.22485
-0.254309
-0.27219
-0.108611
-0.162867
-0.222165
-0.283255
-0.342225
-0.39427
-0.433723
-0.151756
-0.219205
-0.295376
-0.376775
-0.458801
-0.53505
-0.597008
-0.181848
-0.264387
-0.358825
-0.461759
-0.568062
-0.669555
-0.754033
-0.195435
-0.29398
-0.406791
-0.53093
-0.660932
-0.786488
-0.889964
-0.190289
-0.304083
-0.433254
-0.575611
-0.725296
-0.868863
-0.978079
0.00120681
-0.0348724
-0.0680988
-0.0957907
-0.115414
-0.124878
-0.122918
-0.0568605
-0.101489
-0.147834
-0.193074
-0.23416
-0.267758
-0.290309
-0.110164
-0.166256
-0.228559
-0.294123
-0.359398
-0.419717
-0.46893
-0.154464
-0.22484
-0.305811
-0.394648
-0.487608
-0.57882
-0.659132
-0.185714
-0.272789
-0.374642
-0.489394
-0.613778
-0.741151
-0.858663
-0.200426
-0.30564
-0.429351
-0.571397
-0.730006
-0.898571
-1.05939
-0.196229
-0.319218
-0.463471
-0.631409
-0.82373
-1.03454
-1.2358
-0.098145
-0.0733459
-0.0409631
-0.00388918
0.0343558
0.0697537
-0.264345
-0.250285
-0.22116
-0.179125
-0.128195
-0.074185
-0.432516
-0.426976
-0.398192
-0.347727
-0.280236
-0.203653
-0.596407
-0.596685
-0.56493
-0.502293
-0.414058
-0.310429
-0.743806
-0.745194
-0.706079
-0.627485
-0.515014
-0.380685
-0.852751
-0.845916
-0.792947
-0.695161
-0.557689
-0.392766
-0.886909
-0.853825
-0.777222
-0.658567
-0.501298
-0.315327
-0.101936
-0.077444
-0.0451031
-0.00773761
0.0311456
0.0674523
-0.275717
-0.263225
-0.234749
-0.19225
-0.139713
-0.0831505
-0.454685
-0.452485
-0.425162
-0.3739
-0.303245
-0.221435
-0.635028
-0.641363
-0.612281
-0.548281
-0.454331
-0.340899
-0.806856
-0.818192
-0.783447
-0.702642
-0.580577
-0.428945
-0.948297
-0.955766
-0.908974
-0.807883
-0.65585
-0.462761
-1.00793
-0.988039
-0.917027
-0.793858
-0.618649
-0.394781
-0.109458
-0.0856599
-0.0534627
-0.01556
0.0245619
0.0626574
-0.298338
-0.289181
-0.262143
-0.2188
-0.163074
-0.101366
-0.499629
-0.504697
-0.480654
-0.427927
-0.350837
-0.258185
-0.715929
-0.736131
-0.713341
-0.646834
-0.540903
-0.406276
-0.945926
-0.982006
-0.958454
-0.873673
-0.730701
-0.539457
-1.17939
-1.22797
-1.19947
-1.09287
-0.907608
-0.64456
-1.34874
-1.38301
-1.33517
-1.2059
-0.988675
-0.661065
0.0981641
0.116093
0.121654
0.114755
0.09669
0.0695034
0.0359648
-0.0241926
0.0148837
0.0387148
0.0459568
0.0375064
0.015539
-0.0170858
-0.128825
-0.067198
-0.0256613
-0.00626536
-0.00785236
-0.0276321
-0.0621893
-0.206974
-0.121754
-0.0641045
-0.03573
-0.0342203
-0.0555736
-0.0955574
-0.245522
-0.13774
-0.068144
-0.0361822
-0.0368633
-0.0643282
-0.113348
-0.226342
-0.102178
-0.029511
-0.00259334
-0.0125378
-0.0513032
-0.112781
-0.128475
-0.00407998
0.0562337
0.0661948
0.0387736
-0.0163858
-0.0929398
0.0968417
0.11555
0.121598
0.11494
0.0969836
0.0699903
0.0367268
-0.0302216
0.0113195
0.0368502
0.0451144
0.0372133
0.0155496
-0.0168547
-0.140457
-0.0738891
-0.0291081
-0.00784807
-0.00850359
-0.0279322
-0.0625142
-0.225548
-0.131539
-0.0686429
-0.0375401
-0.0348443
-0.0559126
-0.0962051
-0.271554
-0.149396
-0.0723744
-0.0371401
-0.0367587
-0.0642947
-0.114078
-0.256382
-0.111288
-0.0301365
-0.0006397
-0.0105437
-0.0502915
-0.113317
-0.146394
0.000700328
0.0656027
0.0743344
0.044247
-0.0136492
-0.0929467
0.0939919
0.114257
0.12129
0.115134
0.0973787
0.0704933
0.0373911
-0.0424672
0.00406308
0.0330235
0.0433503
0.0365476
0.0153906
-0.0168637
-0.164278
-0.0874773
-0.0360657
-0.0110232
-0.00979266
-0.0285172
-0.0631974
-0.264505
-0.151659
-0.0778304
-0.0411309
-0.0360087
-0.0564609
-0.0973031
-0.328272
-0.173839
-0.0809919
-0.0389785
-0.0364119
-0.0640289
-0.115234
-0.32614
-0.130676
-0.0311672
0.00356635
-0.00633358
-0.0480269
-0.114024
-0.18854
0.0148214
0.0870136
0.0917747
0.0556381
-0.00789802
-0.0925742
-0.162335
-0.282339
-0.413567
-0.55199
-0.688133
-0.802191
-0.85659
-0.120301
-0.246005
-0.379654
-0.517219
-0.648392
-0.750638
-0.777193
-0.06463
-0.189223
-0.316346
-0.441282
-0.552451
-0.625826
-0.616721
-0.00103446
-0.117731
-0.230321
-0.333389
-0.415103
-0.452991
-0.409067
0.0635993
-0.0395542
-0.131576
-0.206359
-0.252495
-0.250795
-0.172078
0.122011
0.0360022
-0.0322609
-0.0757714
-0.0833175
-0.0388189
0.0777344
-0.16592
-0.291908
-0.432654
-0.586762
-0.747714
-0.896555
-0.978941
-0.123907
-0.2565
-0.401055
-0.556904
-0.717999
-0.863941
-0.922193
-0.0678845
-0.199532
-0.337432
-0.479826
-0.618117
-0.728037
-0.740989
-0.0036393
-0.126928
-0.249203
-0.367496
-0.472171
-0.53963
-0.51042
0.0618673
-0.0468748
-0.146696
-0.233305
-0.296762
-0.316594
-0.245342
0.121278
0.031121
-0.0423254
-0.0928604
-0.109363
-0.0734116
0.0505329
-0.172464
-0.310189
-0.470301
-0.658357
-0.878325
-1.12615
-1.32938
-0.13056
-0.276755
-0.44382
-0.640436
-0.876893
-1.16911
-1.45357
-0.0739783
-0.219609
-0.379792
-0.560915
-0.766257
-0.987296
-1.12557
-0.00862655
-0.145046
-0.287467
-0.439767
-0.601698
-0.760754
-0.827112
0.0584206
-0.0615166
-0.177735
-0.291274
-0.399536
-0.491842
-0.499045
0.119643
0.0211393
-0.0633384
-0.13039
-0.172137
-0.174895
-0.0870102
-0.807756
-0.722504
-0.6112
-0.472835
-0.308125
-0.123816
-0.669947
-0.537319
-0.396041
-0.243501
-0.0780265
0.0968677
-0.47861
-0.319587
-0.161693
-0.00471587
0.153557
0.312023
-0.250529
-0.0776871
0.0851299
0.23624
0.377819
0.510624
0.00373923
0.182395
0.340771
0.476547
0.591599
0.687971
0.271256
0.449215
0.595519
0.708425
0.788758
0.838452
-0.890847
-0.793544
-0.678091
-0.53381
-0.356345
-0.143737
-0.737478
-0.576009
-0.424435
-0.264538
-0.0879028
0.112267
-0.530312
-0.341793
-0.172371
-0.0078342
0.160793
0.343462
-0.286807
-0.086154
0.0878126
0.245789
0.396302
0.550964
-0.00956656
0.194829
0.363204
0.504208
0.625221
0.737843
0.306826
0.508149
0.66228
0.77716
0.857323
0.910717
-1.04185
-0.923958
-0.805708
-0.653989
-0.457695
-0.192022
-0.849158
-0.630653
-0.466767
-0.297322
-0.105686
0.140193
-0.615213
-0.371737
-0.187
-0.0125374
0.16984
0.396888
-0.349231
-0.0970733
0.0919831
0.258954
0.421165
0.616451
-0.03683
0.215947
0.398102
0.545757
0.674014
0.817397
0.382953
0.627473
0.792467
0.90834
0.984935
1.04373
0.0545939
0.152744
0.182109
0.163499
0.111907
0.0370748
-0.0553266
0.258569
0.326386
0.321971
0.272831
0.196308
0.102386
-0.00386897
0.451288
0.489578
0.454646
0.378625
0.280835
0.17166
0.055909
0.619426
0.627782
0.566478
0.469265
0.35606
0.237288
0.117651
0.755868
0.732488
0.648822
0.53672
0.41476
0.292645
0.174896
0.85361
0.797137
0.695915
0.575764
0.451887
0.33247
0.221684
0.0902354
0.191144
0.209673
0.18113
0.122198
0.0421016
-0.0545253
0.329087
0.389158
0.364145
0.298606
0.210909
0.109547
-0.0022043
0.538935
0.565529
0.505403
0.409508
0.298291
0.180337
0.0583317
0.713506
0.708394
0.620394
0.502139
0.374718
0.246705
0.120631
0.85026
0.811562
0.701499
0.568862
0.433086
0.302045
0.178204
0.9464
0.870237
0.743915
0.60496
0.468605
0.3412
0.225091
0.242498
0.300184
0.275306
0.219632
0.143669
0.0524751
-0.0525535
0.572628
0.557313
0.462726
0.354511
0.241217
0.124159
0.00142414
0.819313
0.762375
0.622159
0.475912
0.334305
0.197886
0.0633565
1.00261
0.913062
0.742924
0.572278
0.412973
0.265597
0.126622
1.12987
1.00844
0.819714
0.636845
0.470395
0.32074
0.184692
1.20391
1.04645
0.849493
0.665896
0.502298
0.358378
0.231629
0.167402
0.0993052
0.0539423
0.0391359
0.0661723
0.149251
0.301205
0.194589
0.142232
0.114499
0.118657
0.163818
0.259093
0.407839
0.201235
0.160856
0.144033
0.156647
0.204923
0.293236
0.419268
0.187841
0.155328
0.143301
0.156198
0.19791
0.269912
0.368028
0.156954
0.128498
0.116424
0.124074
0.153926
0.206243
0.277159
0.112195
0.0845589
0.0688297
0.0676654
0.0830092
0.115099
0.161381
0.0580098
0.0282833
0.00615095
-0.00626748
-0.00686727
0.00533654
0.0295207
0.16759
0.0969232
0.0492225
0.0328668
0.061564
0.156066
0.345234
0.195353
0.141609
0.113301
0.118563
0.168803
0.277789
0.4574
0.202201
0.161152
0.144527
0.158906
0.212016
0.310768
0.456228
0.188752
0.155946
0.144318
0.158766
0.204028
0.282793
0.392007
0.157714
0.12911
0.117355
0.126058
0.158133
0.214369
0.291191
0.112941
0.0850739
0.0693991
0.0687314
0.0851991
0.119243
0.168354
0.0588796
0.0287506
0.0062288
-0.00628902
-0.00667822
0.00607534
0.0311586
0.167667
0.0918273
0.0391237
0.0188672
0.0500464
0.168654
0.466034
0.196519
0.139982
0.110355
0.117548
0.178156
0.317527
0.575536
0.203768
0.161373
0.145044
0.162786
0.225608
0.346469
0.536361
0.190248
0.156857
0.145974
0.163407
0.215685
0.308271
0.441252
0.158922
0.130061
0.118933
0.129679
0.166103
0.230144
0.319037
0.113883
0.0857822
0.0703331
0.0706721
0.0893348
0.127203
0.181925
0.0597175
0.0291221
0.00619765
-0.00636512
-0.00632068
0.00748632
0.0342939
0.509702
0.679329
0.807702
0.894777
0.939017
0.940226
0.590946
0.742482
0.854215
0.923076
0.947231
0.927386
0.564985
0.691103
0.784938
0.841027
0.857247
0.834856
0.47831
0.57754
0.653629
0.700392
0.715321
0.699276
0.357027
0.431947
0.492392
0.532624
0.549861
0.544031
0.2159
0.270468
0.318337
0.354715
0.376627
0.382849
0.0628153
0.100893
0.139459
0.174729
0.203515
0.223296
0.637275
0.82602
0.9576
1.04092
1.07431
1.05678
0.694418
0.862515
0.979039
1.04523
1.05933
1.02178
0.630016
0.768824
0.867466
0.922451
0.93205
0.897889
0.516369
0.623809
0.7035
0.750004
0.761117
0.738129
0.377999
0.457623
0.520378
0.560694
0.575948
0.566387
0.226087
0.283045
0.332206
0.368768
0.389827
0.39433
0.0655282
0.104478
0.143594
0.179085
0.207788
0.227225
1.14624
1.28821
1.40643
1.47475
1.47391
1.39137
0.983606
1.17012
1.29172
1.34951
1.33751
1.25217
0.781124
0.945611
1.05351
1.10556
1.09977
1.03754
0.597444
0.722029
0.809195
0.855147
0.857994
0.819651
0.420462
0.509803
0.577382
0.617939
0.629092
0.611667
0.246137
0.307937
0.359752
0.396723
0.416055
0.417028
0.07075
0.111412
0.151617
0.187542
0.216059
0.234775
0.899395
0.814601
0.703914
0.583687
0.464664
0.353222
0.253169
0.868006
0.778393
0.672135
0.560924
0.452934
0.353491
0.266291
0.779216
0.700029
0.608025
0.512255
0.419389
0.33418
0.260313
0.656623
0.5948
0.521793
0.444545
0.368532
0.298029
0.236643
0.517698
0.475554
0.422933
0.364832
0.30558
0.24891
0.19824
0.373885
0.351732
0.319229
0.279535
0.235837
0.191261
0.148942
0.232383
0.230121
0.216977
0.194392
0.164498
0.129803
0.0931181
0.991885
0.878356
0.744529
0.60828
0.478835
0.360782
0.256432
0.938606
0.826666
0.703168
0.579946
0.464064
0.359586
0.26917
0.826857
0.733262
0.629849
0.525908
0.427542
0.338772
0.262652
0.686547
0.616156
0.536151
0.453729
0.374137
0.301278
0.238408
0.535257
0.488379
0.431761
0.370609
0.309192
0.251077
0.199502
0.383112
0.358656
0.324131
0.282837
0.237977
0.192633
0.149879
0.23577
0.232863
0.219068
0.19591
0.165575
0.130642
0.0939701
1.21927
1.02163
0.830902
0.65855
0.506988
0.375462
0.262575
1.09799
0.930088
0.767174
0.618057
0.485857
0.37126
0.274495
0.928591
0.801928
0.673772
0.552797
0.443286
0.347442
0.266905
0.74802
0.659104
0.564488
0.471539
0.384807
0.307312
0.241554
0.570356
0.513641
0.448892
0.381641
0.315952
0.255012
0.201681
0.401172
0.37204
0.333473
0.289022
0.241884
0.195022
0.151344
0.242203
0.237996
0.222921
0.198647
0.167448
0.131948
0.0950112
0.00132965
-0.0354163
-0.0696144
-0.0985485
-0.119684
-0.13086
-0.130637
-0.057415
-0.103177
-0.15146
-0.199574
-0.244648
-0.283399
-0.311968
-0.111607
-0.169662
-0.235336
-0.306149
-0.379086
-0.449828
-0.511891
-0.15696
-0.230598
-0.317106
-0.414807
-0.521279
-0.631881
-0.737635
-0.189389
-0.2816
-0.392104
-0.521139
-0.668438
-0.831009
-0.998503
-0.205295
-0.318128
-0.454678
-0.618772
-0.815151
-1.04682
-1.3075
-0.202124
-0.335697
-0.497905
-0.698251
-0.950673
-1.27381
-1.69046
0.001527
-0.0354474
-0.0702043
-0.100068
-0.122509
-0.135308
-0.136859
-0.057229
-0.103612
-0.153226
-0.203579
-0.251988
-0.295244
-0.329268
-0.11165
-0.170977
-0.239137
-0.314111
-0.393402
-0.473073
-0.546512
-0.157464
-0.233372
-0.324059
-0.428774
-0.54625
-0.673028
-0.800805
-0.190538
-0.286431
-0.403449
-0.543512
-0.708706
-0.899084
-1.10809
-0.207161
-0.325481
-0.471432
-0.651614
-0.874992
-1.15111
-1.48982
-0.204611
-0.345684
-0.520276
-0.741703
-1.02949
-1.41188
-1.96206
0.0023218
-0.0342566
-0.0688991
-0.0990131
-0.122119
-0.135979
-0.138877
-0.0554911
-0.101569
-0.151331
-0.202466
-0.252464
-0.298201
-0.335484
-0.109148
-0.168366
-0.237112
-0.313704
-0.396009
-0.48036
-0.560068
-0.154444
-0.230581
-0.322518
-0.430082
-0.552693
-0.687506
-0.826301
-0.187262
-0.28388
-0.403033
-0.547547
-0.720651
-0.923493
-1.14985
-0.203852
-0.32352
-0.472579
-0.658862
-0.892876
-1.18555
-1.54459
-0.201438
-0.344506
-0.52296
-0.751389
-1.05067
-1.44956
-2.00368
0.00396802
-0.0314091
-0.065058
-0.094501
-0.117353
-0.131433
-0.135007
-0.0517182
-0.0962956
-0.144666
-0.194663
-0.243933
-0.289501
-0.32727
-0.103398
-0.160731
-0.227608
-0.302543
-0.383648
-0.467557
-0.547885
-0.146998
-0.220766
-0.310257
-0.415542
-0.536422
-0.670648
-0.810875
-0.178508
-0.272166
-0.388147
-0.52956
-0.700207
-0.902484
-1.13281
-0.19427
-0.310278
-0.455232
-0.637217
-0.867552
-1.15965
-1.53115
-0.191598
-0.330222
-0.503383
-0.725671
-1.01859
-1.4143
-2.00059
0.00653965
-0.0267828
-0.0585016
-0.0862798
-0.107871
-0.12122
-0.124681
-0.0457948
-0.0876241
-0.132988
-0.179825
-0.225904
-0.26843
-0.303584
-0.0942586
-0.147869
-0.210333
-0.280195
-0.355634
-0.433495
-0.507857
-0.134977
-0.203718
-0.286962
-0.384641
-0.496455
-0.620256
-0.749225
-0.164156
-0.251118
-0.358517
-0.488981
-0.645788
-0.830943
-1.04078
-0.178366
-0.28568
-0.419234
-0.586038
-0.796045
-1.06103
-1.39359
-0.175154
-0.302924
-0.461621
-0.663916
-0.928872
-1.28556
-1.79943
0.00994417
-0.0205703
-0.0495345
-0.0747761
-0.0942238
-0.106011
-0.108677
-0.0379687
-0.0759754
-0.11695
-0.158901
-0.199698
-0.236761
-0.266718
-0.0821515
-0.130484
-0.18639
-0.248305
-0.314343
-0.381513
-0.444626
-0.118998
-0.18049
-0.254321
-0.339966
-0.436652
-0.542107
-0.650498
-0.145019
-0.222198
-0.316547
-0.429585
-0.563284
-0.718787
-0.893718
-0.157133
-0.251622
-0.367768
-0.510407
-0.686722
-0.906176
-1.18565
-0.153224
-0.26488
-0.401474
-0.572036
-0.790627
-1.08125
-1.5272
-0.118691
-0.0959211
-0.0640268
-0.0255565
0.0160253
0.0562954
-0.326002
-0.321373
-0.29641
-0.252209
-0.192604
-0.124448
-0.556038
-0.571244
-0.551963
-0.497724
-0.412543
-0.30578
-0.822571
-0.863515
-0.850398
-0.781307
-0.659624
-0.495747
-1.14561
-1.22341
-1.21902
-1.13038
-0.958153
-0.70703
-1.57841
-1.71331
-1.72234
-1.61173
-1.37578
-0.990755
-2.24854
-2.47435
-2.5007
-2.37332
-2.07983
-1.5122
-0.126555
-0.104943
-0.0735267
-0.0347475
0.00794725
0.0499894
-0.348931
-0.348676
-0.325908
-0.281278
-0.218533
-0.144927
-0.603033
-0.62777
-0.613224
-0.558107
-0.466182
-0.347363
-0.91161
-0.97179
-0.967921
-0.897131
-0.76213
-0.573296
-1.31115
-1.42728
-1.44044
-1.34896
-1.15188
-0.8504
-1.90819
-2.12074
-2.16171
-2.04719
-1.76805
-1.28223
-3.0001
-3.37845
-3.45568
-3.32415
-2.96597
-2.20721
-0.129971
-0.109517
-0.0788683
-0.0403879
0.00251012
0.0452037
-0.358716
-0.361503
-0.34063
-0.29641
-0.2325
-0.156367
-0.623593
-0.654227
-0.643139
-0.58838
-0.493523
-0.368895
-0.949807
-1.02056
-1.02263
-0.951974
-0.810924
-0.610475
-1.37313
-1.50677
-1.52962
-1.43789
-1.22986
-0.907507
-1.96862
-2.20449
-2.25997
-2.14476
-1.84824
-1.33171
-2.87019
-3.26226
-3.35837
-3.22581
-2.84428
-2.0586
-0.127116
-0.10782
-0.078367
-0.0410511
0.000793563
0.0426357
-0.351592
-0.355784
-0.336435
-0.293728
-0.231191
-0.156169
-0.613142
-0.645832
-0.636816
-0.583996
-0.490789
-0.36734
-0.938252
-1.01267
-1.0178
-0.949637
-0.810348
-0.610546
-1.36743
-1.50877
-1.53651
-1.44797
-1.24129
-0.917212
-2.00874
-2.26398
-2.32755
-2.21627
-1.91962
-1.39215
-3.14704
-3.58901
-3.69692
-3.56886
-3.18481
-2.36059
-0.117315
-0.0991345
-0.0713342
-0.0361303
0.00328765
0.0426374
-0.326108
-0.329795
-0.311504
-0.271462
-0.213026
-0.14308
-0.568093
-0.59809
-0.589402
-0.540141
-0.453581
-0.339227
-0.866001
-0.93402
-0.938232
-0.874954
-0.746379
-0.562614
-1.2528
-1.38067
-1.40508
-1.3232
-1.13369
-0.838287
-1.80247
-2.02843
-2.08424
-1.98163
-1.71161
-1.23764
-2.65977
-3.03737
-3.13186
-3.01402
-2.66659
-1.94246
-0.101426
-0.084343
-0.0586153
-0.0263671
0.00942195
0.0448609
-0.285094
-0.286722
-0.269126
-0.232739
-0.1807
-0.119138
-0.494746
-0.518338
-0.50859
-0.464239
-0.388428
-0.289546
-0.747567
-0.80219
-0.802494
-0.746048
-0.635269
-0.479071
-1.07166
-1.17497
-1.19065
-1.1182
-0.957435
-0.709959
-1.56092
-1.74796
-1.78742
-1.69714
-1.47111
-1.07501
-2.50914
-2.83948
-2.90732
-2.80389
-2.51696
-1.89952
0.0900354
0.112237
0.120518
0.115037
0.09759
0.0708179
0.0377121
-0.0579571
-0.00513483
0.0281238
0.0410493
0.0356598
0.0151565
-0.0169787
-0.194672
-0.104589
-0.0447491
-0.0149296
-0.0112829
-0.0290408
-0.0637325
-0.315948
-0.177466
-0.0893812
-0.0455166
-0.0372514
-0.0567824
-0.0980929
-0.40833
-0.206316
-0.092083
-0.0412322
-0.0357644
-0.0632682
-0.115941
-0.438093
-0.157355
-0.0324655
0.00895868
-0.000876929
-0.0447731
-0.114091
-0.250547
0.0473808
0.118681
0.114912
0.0702588
-0.000310604
-0.091272
0.0857527
0.109637
0.119068
0.114304
0.0973049
0.0708334
0.0379063
-0.0719262
-0.013627
0.0234502
0.0387749
0.0348044
0.0150953
-0.0166935
-0.221483
-0.11982
-0.0525057
-0.0183409
-0.01236
-0.028997
-0.0633705
-0.361309
-0.200473
-0.0996729
-0.0492568
-0.0379379
-0.0563099
-0.0976071
-0.479438
-0.236134
-0.102455
-0.0432754
-0.0347933
-0.0617281
-0.115146
-0.540571
-0.185659
-0.0358697
0.0129853
0.00408026
-0.0410793
-0.11261
-0.350738
0.0541821
0.139117
0.132876
0.0826806
0.00697815
-0.0885864
0.0818688
0.106615
0.116774
0.112646
0.0962688
0.0704385
0.0381469
-0.0801569
-0.0190014
0.020221
0.0370794
0.0342524
0.0154693
-0.0155445
-0.235842
-0.128227
-0.0568265
-0.0200605
-0.0124076
-0.0278862
-0.0614129
-0.384208
-0.212554
-0.105037
-0.0508181
-0.0373758
-0.0544796
-0.094974
-0.511378
-0.250826
-0.107661
-0.04383
-0.0331847
-0.0590594
-0.111937
-0.571875
-0.196967
-0.0370459
0.0155826
0.00774574
-0.0372247
-0.108843
-0.344109
0.0620164
0.150151
0.142458
0.0899972
0.0125487
-0.0842223
0.0787321
0.103243
0.113529
0.109892
0.094332
0.0695761
0.0385188
-0.0807268
-0.0200096
0.0191377
0.0363155
0.0341961
0.0164623
-0.0132395
-0.234917
-0.1277
-0.0564149
-0.0193769
-0.0110178
-0.02537
-0.0574117
-0.383679
-0.211734
-0.104051
-0.0494162
-0.035131
-0.0509175
-0.0896514
-0.51484
-0.251485
-0.107227
-0.0425627
-0.0307794
-0.0550304
-0.105775
-0.588046
-0.201365
-0.0383608
0.0158538
0.00959367
-0.0333562
-0.102397
-0.38721
0.0533723
0.146488
0.14108
0.0906549
0.0156437
-0.0780874
0.0765535
0.0996201
0.109365
0.106038
0.0914865
0.0682541
0.0390576
-0.0728099
-0.0161556
0.0204844
0.036641
0.0347295
0.0181502
-0.00969205
-0.216702
-0.117174
-0.0507042
-0.0159844
-0.00801735
-0.0213298
-0.0512521
-0.354394
-0.195764
-0.0957298
-0.0445941
-0.0309754
-0.0454869
-0.0815196
-0.473547
-0.232734
-0.0993466
-0.0388208
-0.0273211
-0.0495182
-0.0965651
-0.533638
-0.186193
-0.0363548
0.014737
0.00987403
-0.0294053
-0.0932367
-0.330372
0.0478972
0.132976
0.129859
0.0848049
0.0162246
-0.0702426
0.0752133
0.0957981
0.104421
0.101243
0.0878621
0.066546
0.0397614
-0.0576861
-0.00811318
0.0239701
0.0379607
0.035823
0.0204861
-0.00502462
-0.184183
-0.0981809
-0.0403845
-0.0101596
-0.00353136
-0.0158939
-0.043167
-0.302957
-0.16752
-0.0811744
-0.0367095
-0.0250345
-0.0383365
-0.0708987
-0.404467
-0.200395
-0.0856699
-0.0328937
-0.0227854
-0.0425953
-0.0846704
-0.461952
-0.163912
-0.0336978
0.0121935
0.00897082
-0.0252336
-0.0817012
-0.322663
0.0242973
0.105815
0.10922
0.0734341
0.0147924
-0.0609185
-0.179046
-0.33037
-0.513854
-0.746523
-1.05757
-1.52513
-2.31645
-0.13738
-0.299454
-0.494061
-0.745659
-1.10628
-1.79972
-3.61882
-0.0804313
-0.242597
-0.430393
-0.664371
-0.978662
-1.46269
-2.30652
-0.0141652
-0.166354
-0.334262
-0.534044
-0.791024
-1.16983
-1.81742
0.0543155
-0.0792664
-0.216751
-0.36933
-0.556167
-0.839586
-1.39535
0.117372
0.00856926
-0.0906042
-0.182945
-0.273894
-0.406674
-0.758609
-0.181958
-0.342635
-0.540724
-0.796692
-1.14171
-1.64323
-2.42765
-0.140604
-0.313447
-0.523944
-0.798648
-1.18054
-1.77177
-2.76605
-0.0839511
-0.257955
-0.463708
-0.726683
-1.08501
-1.6204
-2.48436
-0.0177327
-0.181819
-0.367999
-0.598856
-0.908761
-1.37636
-2.16082
0.0511399
-0.0931357
-0.246818
-0.427223
-0.663018
-1.03255
-1.72431
0.115032
-0.00212388
-0.113197
-0.225213
-0.350321
-0.543879
-0.996004
-0.179104
-0.342326
-0.544496
-0.806635
-1.15894
-1.66325
-2.43164
-0.13842
-0.314344
-0.529047
-0.808361
-1.18957
-1.74773
-2.61029
-0.0829184
-0.260849
-0.472502
-0.744496
-1.11465
-1.65937
-2.51422
-0.0180074
-0.186561
-0.379841
-0.622768
-0.952054
-1.447
-2.25904
0.0497414
-0.0989035
-0.259619
-0.452296
-0.708639
-1.10899
-1.83383
0.112882
-0.00789619
-0.124672
-0.246571
-0.388376
-0.607372
-1.08666
-0.169689
-0.327729
-0.523275
-0.776543
-1.11675
-1.60533
-2.35848
-0.130261
-0.300637
-0.507967
-0.776513
-1.14062
-1.67159
-2.50118
-0.0768898
-0.249633
-0.454782
-0.717989
-1.07563
-1.60289
-2.43851
-0.0146548
-0.178814
-0.367126
-0.604163
-0.926207
-1.41253
-2.21657
0.0502936
-0.0949083
-0.25229
-0.441808
-0.695234
-1.09308
-1.81653
0.110888
-0.00739384
-0.122341
-0.243457
-0.385918
-0.607201
-1.08953
-0.1539
-0.299123
-0.477453
-0.706404
-1.01208
-1.45475
-2.16204
-0.116405
-0.272701
-0.461142
-0.7026
-1.02743
-1.50507
-2.28129
-0.0661784
-0.224707
-0.411165
-0.647808
-0.967179
-1.44288
-2.2266
-0.00796271
-0.158879
-0.330346
-0.543877
-0.832279
-1.2732
-2.03111
0.0525613
-0.0813084
-0.225054
-0.396266
-0.623952
-0.986961
-1.6741
0.108868
-0.00065267
-0.106214
-0.216218
-0.344971
-0.550214
-1.01987
-0.132904
-0.258999
-0.411008
-0.601146
-0.847969
-1.20082
-1.78436
-0.09798
-0.233108
-0.392567
-0.590711
-0.84842
-1.22105
-1.84798
-0.0518021
-0.188617
-0.345745
-0.538449
-0.788983
-1.15554
-1.7828
0.00124797
-0.129055
-0.273299
-0.446199
-0.670265
-1.00702
-1.61195
0.0559987
-0.0599212
-0.180949
-0.318908
-0.493643
-0.768186
-1.31872
0.106586
0.0111239
-0.0783084
-0.166654
-0.262719
-0.413421
-0.793805
0.917699
0.538687
0.379256
0.272843
0.171508
0.065834
-0.049298
1.43944
0.895878
0.61531
0.43121
0.280303
0.142681
0.00659438
1.7392
1.14119
0.799007
0.565974
0.380361
0.219826
0.0699974
1.91884
1.29777
0.925735
0.666459
0.461482
0.288912
0.134131
1.99336
1.37159
0.99342
0.727138
0.517248
0.343497
0.192484
1.93414
1.35756
1.0004
0.745406
0.544042
0.378953
0.239186
1.12863
0.66371
0.451144
0.314073
0.194567
0.0778085
-0.045031
1.77043
1.09165
0.724546
0.491258
0.312475
0.158749
0.0122477
2.11657
1.36988
0.928086
0.636949
0.418096
0.238418
0.0764546
2.30456
1.53414
1.06036
0.740797
0.500962
0.308232
0.140766
2.35835
1.59638
1.12204
0.798362
0.555054
0.361912
0.198789
2.254
1.55574
1.11398
0.808345
0.577432
0.395167
0.244794
1.20008
0.716358
0.484874
0.334564
0.206883
0.0854261
-0.0401326
1.88908
1.17541
0.775766
0.520684
0.328899
0.167893
0.0172887
2.2573
1.46936
0.98876
0.671322
0.436662
0.248079
0.081049
2.4501
1.63735
1.12331
0.776162
0.519598
0.317359
0.144417
2.49612
1.69407
1.18147
0.831402
0.571996
0.369659
0.201216
2.37302
1.64069
1.16547
0.836563
0.591392
0.40098
0.245928
1.19021
0.709245
0.479818
0.331372
0.205882
0.0871987
-0.034919
1.88024
1.16699
0.76855
0.51523
0.325837
0.167874
0.0209773
2.24581
1.45836
0.978942
0.663404
0.431334
0.245957
0.0827008
2.43607
1.62384
1.11105
0.765925
0.512064
0.313061
0.143768
2.48043
1.67891
1.16741
0.819316
0.562583
0.363369
0.198301
2.36014
1.62597
1.15073
0.823357
0.580639
0.393111
0.241062
1.11433
0.648675
0.43781
0.304741
0.191417
0.0829239
-0.0295717
1.74526
1.06741
0.702908
0.474509
0.302852
0.158324
0.0230218
2.08168
1.33625
0.897809
0.612387
0.401437
0.231548
0.0810436
2.26061
1.49195
1.02217
0.708956
0.477504
0.294734
0.138414
2.30797
1.54779
1.07776
0.760678
0.525821
0.34238
0.189633
2.19941
1.50364
1.06615
0.766907
0.54407
0.370868
0.229796
0.886037
0.510112
0.355387
0.256153
0.165279
0.073576
-0.0241345
1.39709
0.853714
0.577192
0.401313
0.262588
0.140699
0.0236006
1.67842
1.08203
0.745265
0.522096
0.350258
0.206683
0.0764668
1.8405
1.22264
0.857609
0.609634
0.419524
0.264423
0.128925
1.90244
1.28495
0.914433
0.660061
0.465344
0.308787
0.175919
1.84393
1.26766
0.916024
0.672026
0.485181
0.336273
0.212926
0.167224
0.0849631
0.0254119
-0.00166937
0.0276766
0.168499
0.721358
0.197267
0.137241
0.105542
0.114061
0.186181
0.366205
0.767987
0.204981
0.160894
0.144625
0.165813
0.239672
0.388374
0.642804
0.191436
0.157319
0.147164
0.167822
0.228047
0.337197
0.50104
0.159866
0.130719
0.120284
0.133292
0.17463
0.247789
0.351478
0.114554
0.0862784
0.0711552
0.072647
0.0937837
0.13604
0.197403
0.0601496
0.0292483
0.00608725
-0.00645946
-0.00595105
0.00898821
0.0377179
0.165892
0.0781692
0.0121612
-0.0234302
-0.00441171
0.1269
0.63265
0.196661
0.133553
0.0992917
0.106256
0.180044
0.37011
0.793194
0.204713
0.159116
0.142345
0.164817
0.243803
0.405264
0.685942
0.191261
0.156535
0.146707
0.169242
0.234237
0.353206
0.534517
0.159729
0.130418
0.120468
0.134994
0.179622
0.25888
0.372423
0.114506
0.0862273
0.0714182
0.0737467
0.0966051
0.141924
0.208007
0.0602424
0.0293093
0.00610786
-0.00640586
-0.00564506
0.00995582
0.0399061
0.163359
0.0731542
0.00351915
-0.0380555
-0.028962
0.086071
0.535385
0.193981
0.129475
0.0934375
0.0979054
0.168364
0.354227
0.76615
0.202068
0.15587
0.138505
0.160445
0.239429
0.402325
0.686535
0.188868
0.154043
0.144222
0.167011
0.232968
0.354407
0.540625
0.157843
0.128719
0.119019
0.133964
0.179485
0.260598
0.377506
0.113378
0.0854344
0.0709279
0.073572
0.0969172
0.143146
0.210831
0.0600468
0.0295128
0.00656335
-0.00586073
-0.00512453
0.0104469
0.0405075
0.159384
0.0708691
0.00186726
-0.0407572
-0.0352775
0.0731672
0.533467
0.188809
0.12546
0.0894561
0.0922595
0.158685
0.338016
0.746151
0.196538
0.151208
0.13371
0.154119
0.229766
0.38746
0.665857
0.183762
0.149685
0.139798
0.16146
0.22503
0.34285
0.524879
0.153826
0.125445
0.11586
0.13014
0.174126
0.25291
0.367105
0.110963
0.0838409
0.0696949
0.0721261
0.0946342
0.139461
0.20542
0.0595785
0.0300178
0.0077206
-0.0044752
-0.00399527
0.0108465
0.0398222
0.153823
0.0713457
0.00726632
-0.0322701
-0.0282971
0.0657261
0.453212
0.181024
0.12157
0.0875129
0.0891503
0.148457
0.308475
0.668141
0.188016
0.145185
0.128152
0.146019
0.21428
0.356623
0.606885
0.175856
0.1435
0.133589
0.152821
0.210534
0.31775
0.483263
0.147619
0.120625
0.111104
0.123706
0.163752
0.235835
0.340491
0.107243
0.081493
0.0678224
0.069569
0.08996
0.131058
0.191806
0.0588651
0.030905
0.00970997
-0.0020653
-0.00201604
0.011442
0.0381435
0.146721
0.0739775
0.0186515
-0.013241
-0.00516418
0.0816947
0.432397
0.170867
0.117666
0.0873015
0.0886824
0.140097
0.276798
0.582714
0.176836
0.13794
0.121977
0.136693
0.194852
0.315563
0.525858
0.165481
0.135728
0.125914
0.141759
0.190974
0.282356
0.422528
0.139489
0.114485
0.105052
0.115215
0.14943
0.211354
0.30109
0.102388
0.0785241
0.065479
0.0662048
0.083477
0.118982
0.171691
0.0579546
0.0321664
0.0124955
0.00134763
0.000867978
0.0124418
0.0359111
3.26557
2.63123
2.63698
2.6661
2.57874
2.29754
1.60123
1.73436
1.84803
1.89159
1.83464
1.65689
1.00561
1.20497
1.32593
1.3747
1.34646
1.23989
0.70232
0.851038
0.949299
0.99545
0.98744
0.927483
0.471896
0.574239
0.648683
0.690069
0.696148
0.668394
0.269604
0.337628
0.393024
0.430708
0.447952
0.444438
0.0766
0.119343
0.160917
0.197393
0.225666
0.243444
2.74924
3.30167
3.54195
3.60383
3.47629
3.05157
1.6426
2.05358
2.26629
2.33052
2.2488
1.99774
1.09612
1.37249
1.5348
1.59405
1.55219
1.40969
0.762529
0.942371
1.05949
1.1107
1.09557
1.0178
0.506205
0.622279
0.705413
0.74921
0.751725
0.715321
0.286251
0.360126
0.419344
0.45814
0.473809
0.466464
0.0804922
0.124974
0.167788
0.20477
0.232803
0.249713
2.32208
3.07089
3.40279
3.49345
3.3618
2.93517
1.57041
2.06658
2.32929
2.41176
2.32619
2.06068
1.1039
1.41685
1.60443
1.67346
1.62839
1.47347
0.777336
0.97387
1.10321
1.15918
1.14182
1.05636
0.516598
0.640112
0.728775
0.77465
0.775751
0.735119
0.291493
0.368333
0.429723
0.469225
0.484057
0.474626
0.081452
0.126487
0.169695
0.206701
0.234366
0.250609
2.53313
3.34607
3.70695
3.81061
3.67926
3.21472
1.57711
2.09983
2.37936
2.47032
2.38586
2.10851
1.08146
1.40287
1.59805
1.67156
1.62771
1.47006
0.758834
0.95738
1.08947
1.14735
1.1307
1.04471
0.504106
0.627445
0.716621
0.762933
0.764172
0.723396
0.284522
0.360504
0.421425
0.460569
0.475069
0.465366
0.0795676
0.123552
0.165845
0.20203
0.228981
0.244677
2.07826
2.79928
3.13566
3.23941
3.12997
2.7375
1.38683
1.86054
2.12194
2.21225
2.14256
1.90139
0.979775
1.2749
1.45807
1.53035
1.49479
1.35516
0.696342
0.880026
1.00433
1.0607
1.04821
0.971526
0.466458
0.581191
0.665259
0.709964
0.71287
0.67663
0.265012
0.335981
0.393473
0.430949
0.445517
0.437451
0.0750703
0.116285
0.15621
0.190587
0.216376
0.231601
2.00997
2.62556
2.90697
3.00244
2.92558
2.58695
1.20828
1.60587
1.82758
1.91057
1.86213
1.66432
0.837351
1.08551
1.24285
1.3093
1.28612
1.17443
0.602107
0.758708
0.867021
0.918945
0.912879
0.851965
0.409038
0.508484
0.582815
0.624076
0.629666
0.601416
0.235452
0.297978
0.349518
0.384119
0.398952
0.393961
0.0686784
0.105673
0.141959
0.173624
0.19779