/*--------------------------------*- C++ -*----------------------------------*\
  =========                 |
  \\      /  F ield         | OpenFOAM: The Open Source CFD Toolbox
   \\    /   O peration     | Website:  https://openfoam.org
    \\  /    A nd           | Version:  7
     \\/     M anipulation  |
\*---------------------------------------------------------------------------*/
FoamFile
{
    version     2.0;
    format      ascii;
    class       volScalarField;
    location    "0.25";
    object      p;
}
// * * * * * * * * * * * * * * * * * * * * * * * * * * * * * * * * * * * * * //

dimensions      [0 2 -2 0 0 0 0];

internalField   nonuniform List<scalar> 
7784
(
4.63894e-08
0.0011814
0.00378359
0.00861711
0.016798
0.0294954
0.0476059
-0.0039821
-0.00338633
-0.00175747
0.00187292
0.00887201
0.0207877
0.0389194
-0.0110248
-0.0115041
-0.0117657
-0.0105415
-0.00598941
0.0042179
0.0223071
-0.0200452
-0.0221278
-0.0252835
-0.0278905
-0.0274559
-0.0203781
-0.00260928
-0.0297398
-0.0339437
-0.0410437
-0.0491466
-0.0550624
-0.053367
-0.0366621
-0.0382734
-0.044916
-0.0567267
-0.0718327
-0.0866198
-0.0935479
-0.0796158
-0.0433869
-0.0522599
-0.0685933
-0.091007
-0.116248
-0.135395
-0.127648
0.00194173
0.00311931
0.00568648
0.0104425
0.0184949
0.0310191
0.0489404
-0.00208435
-0.00153097
2.23093e-06
0.00346543
0.0102202
0.0218528
0.0397685
-0.00912473
-0.00971591
-0.0101903
-0.00932222
-0.00528434
0.00435034
0.0221234
-0.0181522
-0.0204738
-0.0240761
-0.0274452
-0.0281521
-0.0223984
-0.00528958
-0.0279206
-0.0325831
-0.0405713
-0.0502604
-0.0586935
-0.0601714
-0.0452369
-0.0366286
-0.0440686
-0.0575138
-0.0757124
-0.0957474
-0.110002
-0.10129
-0.0419971
-0.0520969
-0.07112
-0.0990097
-0.1344
-0.169725
-0.176001
0.00608691
0.00723935
0.00973315
0.0143405
0.0221452
0.0343256
0.051848
0.00210204
0.00259658
0.00398918
0.00719049
0.0135358
0.0246565
0.0421223
-0.00486142
-0.00558998
-0.00636897
-0.0060551
-0.00287511
0.00572942
0.0228451
-0.013844
-0.0164689
-0.0207412
-0.0253588
-0.0280794
-0.0248735
-0.00925379
-0.0236852
-0.0289695
-0.0383764
-0.0508437
-0.0640825
-0.0723403
-0.0620459
-0.0326519
-0.0412541
-0.0574887
-0.0815254
-0.112516
-0.144189
-0.14991
-0.0384454
-0.0504582
-0.0743988
-0.113587
-0.172802
-0.254082
-0.319783
0.0713544
0.100135
0.132975
0.168959
0.207464
0.248266
0.0636283
0.0939114
0.128368
0.165825
0.20555
0.247297
0.0490341
0.0823745
0.120002
0.160259
0.202247
0.245717
0.0276685
0.0660589
0.108596
0.152971
0.198163
0.244003
-0.00032715
0.045797
0.095184
0.144923
0.194088
0.242776
-0.0331281
0.0239246
0.0818332
0.137696
0.191152
0.242826
-0.0650565
0.00538775
0.0720067
0.133518
0.190734
0.244995
0.0724987
0.101022
0.133493
0.168979
0.206832
0.246769
0.064409
0.0945752
0.128767
0.165792
0.204905
0.245812
0.049117
0.0826725
0.120245
0.160183
0.201615
0.244274
0.0262028
0.0656024
0.10853
0.152805
0.197546
0.242635
-0.00505567
0.0438628
0.0945211
0.144566
0.193469
0.241521
-0.0438372
0.0195244
0.0802074
0.137021
0.190511
0.241754
-0.0854603
-0.00234427
0.0691444
0.132443
0.190094
0.244267
0.0749739
0.102918
0.134591
0.169028
0.205539
0.243738
0.0665198
0.0963037
0.129822
0.16586
0.203656
0.242836
0.0502225
0.083961
0.12118
0.160279
0.200457
0.241418
0.0246795
0.0657762
0.109102
0.152868
0.196491
0.23996
-0.0127375
0.0416422
0.0942783
0.144447
0.192494
0.239107
-0.0637352
0.0131685
0.0785838
0.136522
0.189559
0.239724
-0.123181
-0.0132921
0.0658627
0.131417
0.189127
0.242923
0.291617
0.338381
0.390302
0.450518
0.524922
0.632492
0.823916
0.291341
0.338581
0.390825
0.451301
0.525861
0.633146
0.8287
0.290998
0.339063
0.391824
0.452625
0.527413
0.634936
0.831458
0.290942
0.340058
0.393428
0.454559
0.529536
0.637228
0.834007
0.291645
0.341895
0.395836
0.45721
0.532274
0.640012
0.836854
0.293666
0.344917
0.399227
0.460646
0.535632
0.643283
0.840084
0.297517
0.349364
0.403664
0.464839
0.539543
0.646971
0.843651
0.288908
0.333824
0.382627
0.437015
0.499244
0.57305
0.656093
0.288656
0.334047
0.38315
0.437721
0.499995
0.573616
0.657857
0.28837
0.334581
0.38418
0.439038
0.501485
0.575255
0.659949
0.288424
0.335681
0.385859
0.441011
0.503608
0.577494
0.662348
0.289328
0.337706
0.388405
0.443746
0.506384
0.580277
0.66516
0.291727
0.341064
0.392026
0.44732
0.509814
0.583576
0.668393
0.296299
0.346086
0.396822
0.451712
0.513826
0.587309
0.671977
0.28354
0.325128
0.368883
0.415182
0.463932
0.513548
0.554163
0.283344
0.325392
0.369422
0.415872
0.464683
0.514411
0.555827
0.283191
0.326041
0.370532
0.417229
0.46618
0.516044
0.557744
0.283486
0.32736
0.372371
0.419297
0.468342
0.51827
0.560058
0.284839
0.329791
0.375202
0.422204
0.471204
0.521077
0.562849
0.28813
0.333903
0.379315
0.426061
0.474779
0.524438
0.566097
0.294775
0.340377
0.384922
0.430875
0.478996
0.52826
0.569717
-0.0428471
-0.0528532
-0.07162
-0.0984038
-0.13102
-0.161115
-0.160911
-0.0353937
-0.044671
-0.0617929
-0.0854039
-0.112221
-0.132982
-0.125548
-0.0217304
-0.0290346
-0.0421076
-0.0590532
-0.0761014
-0.0850843
-0.0712948
-0.00370552
-0.00864106
-0.0171104
-0.0271403
-0.0352983
-0.0354556
-0.0186896
0.016607
0.0138836
0.00954427
0.00531243
0.0039313
0.00961687
0.0275673
0.0373971
0.0364853
0.035425
0.0355631
0.0389359
0.048315
0.0666764
-0.0416615
-0.0532058
-0.0755503
-0.11023
-0.159414
-0.220004
-0.248175
-0.0341764
-0.0447726
-0.0647985
-0.0943458
-0.132248
-0.17086
-0.17863
-0.0203988
-0.0286361
-0.0436419
-0.0642698
-0.0876368
-0.105593
-0.09807
-0.00230771
-0.00783979
-0.0174868
-0.0296413
-0.0412269
-0.0458398
-0.0316014
0.0179876
0.014909
0.00988732
0.00447474
0.00127863
0.0047416
0.0215429
0.0386923
0.0375848
0.0361466
0.0356517
0.0380944
0.0463939
0.0642699
-0.0384832
-0.0525412
-0.0818156
-0.134276
-0.227872
-0.408354
-0.68657
-0.0309789
-0.0436661
-0.0690733
-0.111049
-0.175549
-0.26657
-0.344958
-0.0170687
-0.0267261
-0.0451471
-0.0729818
-0.110178
-0.151106
-0.165103
0.0010504
-0.00536192
-0.0170226
-0.0331616
-0.0518583
-0.0672487
-0.0620032
0.0212216
0.0176231
0.011452
0.00386933
-0.00300607
-0.0048345
0.00760263
0.0416854
0.0402832
0.0382072
0.0365558
0.0371196
0.0428084
0.0585146
-0.0821907
-0.00135324
0.0703849
0.134883
0.194108
0.249844
-0.0596568
0.0127347
0.0805894
0.143244
0.201631
0.257027
-0.0207056
0.0393045
0.0993584
0.157155
0.212508
0.265958
0.0212751
0.0705157
0.122344
0.174222
0.225378
0.275822
0.0606524
0.101671
0.14626
0.192291
0.23887
0.285761
0.0953268
0.13035
0.16901
0.209762
0.251853
0.295027
-0.113284
-0.0115921
0.0666824
0.133574
0.193647
0.249777
-0.0804927
0.00499703
0.0775824
0.142175
0.201381
0.257335
-0.0326113
0.0344456
0.0973996
0.15647
0.21244
0.266424
0.014969
0.0678236
0.121265
0.173886
0.225438
0.276297
0.0576666
0.100474
0.145878
0.192267
0.239021
0.286125
0.0944851
0.130392
0.169366
0.210141
0.252122
0.295173
-0.168061
-0.0232589
0.0621034
0.132074
0.193226
0.250405
-0.114813
-0.00520192
0.0737603
0.140946
0.201286
0.258689
-0.0524197
0.0277428
0.0948961
0.155692
0.21256
0.267993
0.00476889
0.064153
0.119909
0.173533
0.225701
0.277817
0.0529829
0.098946
0.145488
0.192347
0.239407
0.287409
0.0936156
0.13107
0.170385
0.211068
0.252842
0.29608
0.303329
0.355134
0.408959
0.469591
0.54383
0.650926
0.84743
0.310304
0.361512
0.414591
0.474532
0.548224
0.654941
0.851246
0.317895
0.367988
0.420129
0.479323
0.552461
0.658806
0.854918
0.32558
0.374161
0.425246
0.4837
0.556331
0.662348
0.858293
0.332832
0.379688
0.429704
0.487488
0.559693
0.665449
0.861264
0.339193
0.38432
0.43337
0.490603
0.562485
0.668053
0.863776
0.303322
0.352708
0.402582
0.4567
0.518226
0.591313
0.675775
0.310972
0.359605
0.408523
0.461804
0.522698
0.595359
0.679599
0.318788
0.366264
0.414173
0.466652
0.526957
0.599226
0.683261
0.326374
0.372345
0.419225
0.470983
0.530791
0.602738
0.686607
0.333251
0.377542
0.42346
0.47463
0.534065
0.60578
0.689531
0.338942
0.381611
0.426761
0.477526
0.536728
0.608303
0.691983
0.306643
0.349511
0.391832
0.436383
0.483626
0.532357
0.57355
0.316244
0.357735
0.398482
0.441834
0.488251
0.53646
0.577387
0.324523
0.364788
0.404367
0.446794
0.492548
0.540325
0.581029
0.331697
0.370595
0.409252
0.451015
0.496302
0.543772
0.584315
0.337447
0.37495
0.412972
0.454357
0.499392
0.546693
0.587146
0.34108
0.377551
0.415425
0.456779
0.501786
0.549053
0.589482
0.0572835
0.0577306
0.0590686
0.0622705
0.068788
0.0804116
0.0988269
0.0753118
0.076706
0.0796734
0.0848605
0.0932575
0.10598
0.123943
0.0908887
0.0929016
0.0969044
0.103285
0.112696
0.125809
0.143107
0.103688
0.106081
0.110701
0.11775
0.127645
0.140785
0.15742
0.113559
0.116172
0.121139
0.128533
0.138621
0.15164
0.167719
0.120461
0.123194
0.128342
0.135901
0.146044
0.158918
0.174595
0.124167
0.126964
0.132196
0.139821
0.149972
0.162753
0.178208
0.0584526
0.0588051
0.0599478
0.0628367
0.0689404
0.0801863
0.0986615
0.076338
0.0776966
0.0805664
0.0855991
0.0938121
0.106404
0.124468
0.0917747
0.0937835
0.0977357
0.104031
0.113343
0.126385
0.143707
0.10445
0.106855
0.111446
0.118436
0.128257
0.141328
0.157918
0.114227
0.11686
0.121804
0.129147
0.139167
0.152104
0.168094
0.121081
0.123837
0.128966
0.136474
0.146547
0.15933
0.174892
0.124809
0.127631
0.132845
0.140421
0.150499
0.163181
0.178507
0.0611409
0.0613357
0.0621447
0.0644742
0.0697926
0.0802514
0.098993
0.0787008
0.0799764
0.0826694
0.0874272
0.0953038
0.107659
0.126046
0.0938257
0.0957878
0.0996339
0.10577
0.114895
0.127802
0.145196
0.10623
0.108603
0.113115
0.119984
0.129657
0.14258
0.159068
0.115792
0.118398
0.123272
0.130504
0.140376
0.153136
0.168924
0.122503
0.125233
0.130293
0.13769
0.147608
0.160191
0.175498
0.126169
0.128966
0.13411
0.141573
0.151491
0.16396
0.179009
0.124515
0.155185
0.189146
0.225389
0.263405
0.303047
0.147259
0.17465
0.205064
0.237844
0.272674
0.309537
0.164573
0.189518
0.217296
0.247491
0.279936
0.314723
0.177506
0.200669
0.226525
0.25483
0.285527
0.318797
0.186819
0.208732
0.233238
0.26021
0.289672
0.321868
0.193041
0.214138
0.23776
0.263857
0.292507
0.323993
0.196313
0.216987
0.240152
0.265792
0.294018
0.325133
0.125413
0.156542
0.190444
0.226326
0.263807
0.302782
0.14828
0.175827
0.206052
0.238396
0.272606
0.308654
0.165314
0.190227
0.217763
0.247529
0.279368
0.313334
0.177971
0.201
0.226586
0.254474
0.284592
0.317062
0.187081
0.208808
0.233028
0.259593
0.288497
0.319914
0.193187
0.214071
0.237399
0.263092
0.291194
0.321916
0.19644
0.216885
0.239744
0.264978
0.292656
0.323007
0.129693
0.161704
0.194995
0.229607
0.26553
0.302898
0.151357
0.179205
0.208835
0.240043
0.272767
0.307034
0.167182
0.191996
0.21894
0.247721
0.278237
0.310497
0.179048
0.201766
0.226741
0.253723
0.282619
0.313462
0.187655
0.208968
0.232564
0.258262
0.286004
0.315852
0.193462
0.213886
0.236581
0.261428
0.288401
0.31759
0.196581
0.216545
0.238767
0.263162
0.289726
0.318564
0.344417
0.388005
0.436264
0.493076
0.564727
0.670163
0.865822
0.348718
0.391022
0.438593
0.495043
0.566497
0.671822
0.867424
0.35227
0.393528
0.440495
0.496607
0.567869
0.673073
0.868602
0.355141
0.395576
0.442028
0.497827
0.568887
0.673939
0.869341
0.357351
0.397167
0.443202
0.49872
0.569572
0.674417
0.869535
0.358899
0.398282
0.444004
0.499284
0.569931
0.674534
0.868677
0.359731
0.398873
0.444401
0.499482
0.569994
0.674887
0.864904
0.343151
0.384519
0.429191
0.479737
0.53882
0.610324
0.693967
0.346661
0.386934
0.431136
0.481473
0.540456
0.611903
0.695514
0.349692
0.389036
0.432765
0.482867
0.541726
0.613097
0.696658
0.352239
0.390828
0.434119
0.483972
0.54268
0.61394
0.697409
0.354254
0.392264
0.435185
0.484803
0.543347
0.614454
0.697735
0.355696
0.393299
0.43594
0.485363
0.543761
0.614716
0.697538
0.356486
0.393861
0.436338
0.485643
0.544018
0.615164
0.696793
0.341411
0.378247
0.416737
0.458413
0.503566
0.550894
0.591341
0.342722
0.37919
0.417824
0.459662
0.504926
0.55231
0.592779
0.344541
0.380398
0.418875
0.460703
0.505986
0.55338
0.593845
0.346385
0.381651
0.41986
0.461573
0.5068
0.554148
0.594567
0.347995
0.382771
0.420703
0.462261
0.507387
0.554638
0.594943
0.349212
0.383631
0.421337
0.462751
0.507769
0.554883
0.594898
0.349907
0.384127
0.421703
0.463037
0.508018
0.555027
0.594247
0.0124546
0.013606
0.016074
0.0205809
0.0281562
0.0399385
0.0568869
0.00863535
0.00913051
0.0104884
0.0135558
0.0196015
0.0302303
0.0470862
0.00195351
0.00121203
0.000349555
0.000400747
0.00302292
0.0107667
0.0270853
-0.0067083
-0.00940466
-0.0139298
-0.0192222
-0.0233518
-0.0223954
-0.00864827
-0.0162875
-0.0218026
-0.0319181
-0.046202
-0.0634254
-0.078847
-0.0744644
-0.0251604
-0.0343347
-0.0523152
-0.0810231
-0.123425
-0.178346
-0.205449
-0.0310932
-0.0442547
-0.0719306
-0.122287
-0.213609
-0.392252
-0.669457
0.0209153
0.0221225
0.0246752
0.0292222
0.0367021
0.0481437
0.0643917
0.0174142
0.0180283
0.0195737
0.0228236
0.0289451
0.0393941
0.0556053
0.0113049
0.0107969
0.0103359
0.0108916
0.0140237
0.0220694
0.0379746
0.00340302
0.00112755
-0.00261342
-0.00674769
-0.00931892
-0.0065806
0.00788286
-0.00530941
-0.0101095
-0.0187725
-0.0305557
-0.0435831
-0.0524848
-0.0433694
-0.0133323
-0.0213544
-0.0367342
-0.0601299
-0.0914088
-0.125017
-0.132587
-0.0186148
-0.0300507
-0.0532738
-0.0924785
-0.154155
-0.243143
-0.320821
0.0311554
0.0324704
0.0352012
0.0398987
0.0473745
0.0584918
0.0739194
0.02811
0.0289361
0.0308407
0.0344942
0.0409109
0.0512997
0.0667565
0.0228199
0.0227314
0.0230128
0.0245407
0.0286954
0.0373999
0.0527972
0.0160414
0.0145285
0.0122161
0.0101655
0.0102119
0.0154652
0.0303451
0.00866723
0.00516665
-0.000912968
-0.00853233
-0.0155335
-0.0171556
-0.00429056
0.00202871
-0.00392782
-0.0149197
-0.0304702
-0.0487882
-0.0635922
-0.0571871
-0.00211957
-0.0105705
-0.0269393
-0.0522962
-0.0871893
-0.126831
-0.141083
0.0427017
0.0441501
0.0470928
0.0519682
0.0594403
0.070186
0.084691
0.0401887
0.041266
0.0435849
0.0476897
0.0544088
0.0646725
0.0792466
0.0358577
0.0362469
0.0373597
0.0399296
0.0450873
0.054281
0.0689336
0.0303781
0.0297173
0.0289518
0.029025
0.0314747
0.0386067
0.0531962
0.0245419
0.0224496
0.0190459
0.0154027
0.013467
0.0167812
0.0307746
0.019472
0.0156657
0.00896074
0.000302339
-0.00822567
-0.0117045
9.99697e-05
0.0165796
0.0110917
0.000945941
-0.0135089
-0.0309227
-0.0461633
-0.0423896
0.0550165
0.0565875
0.0597161
0.0647245
0.072127
0.0824227
0.095937
0.0530472
0.0543563
0.057045
0.0615225
0.0684268
0.0784298
0.0920293
0.0496897
0.0505147
0.0523658
0.0558075
0.0617055
0.0710795
0.0848157
0.0455099
0.0456128
0.0461917
0.0480014
0.0522233
0.0604411
0.0743016
0.0411823
0.0403215
0.0391669
0.0386405
0.0402765
0.0464668
0.0602799
0.0376139
0.0356287
0.0323784
0.0288348
0.0267816
0.02955
0.0426886
0.0358866
0.0328251
0.027463
0.0205855
0.0138144
0.0108925
0.0205693
0.0675658
0.0692248
0.0724756
0.0775315
0.0847707
0.0945385
0.107032
0.066101
0.067588
0.0705467
0.0752582
0.0821885
0.091795
0.104377
0.06364
0.0648057
0.0672154
0.0712677
0.077589
0.0868583
0.0995946
0.0606432
0.0613383
0.062933
0.0659767
0.07132
0.079993
0.0929266
0.0576542
0.0577383
0.0582538
0.0599039
0.0638022
0.0714733
0.0845874
0.0553854
0.0547707
0.05402
0.0539375
0.0558649
0.0619054
0.0749821
0.0546373
0.0533655
0.0513718
0.04944
0.0489383
0.0522851
0.0639069
0.0792615
0.106197
0.136569
0.169398
0.203953
0.239748
0.070856
0.0997267
0.131972
0.166389
0.202205
0.238957
0.0543504
0.0875347
0.123602
0.161082
0.199243
0.237749
0.027456
0.0692168
0.111787
0.153997
0.19558
0.236591
-0.0148099
0.0442191
0.0971088
0.145894
0.191888
0.236121
-0.0769375
0.0143294
0.0816326
0.138269
0.189127
0.237158
-0.148286
-0.00806652
0.0705557
0.133521
0.188148
0.240113
0.0856377
0.11107
0.139621
0.170332
0.202447
0.235393
0.0780945
0.105261
0.135505
0.167662
0.200933
0.234766
0.0634522
0.0943939
0.128049
0.162973
0.198389
0.233851
0.0402128
0.0783099
0.117627
0.156765
0.195292
0.233095
0.0056988
0.0569807
0.104907
0.149761
0.192256
0.233111
-0.0411254
0.0326094
0.0918979
0.143322
0.190109
0.234647
-0.0888436
0.0140054
0.0830158
0.139494
0.189476
0.237953
0.0937599
0.117325
0.14367
0.171898
0.201257
0.231122
0.0875717
0.112522
0.140256
0.169698
0.200047
0.230689
0.0758163
0.103672
0.134141
0.165872
0.198047
0.230111
0.0579014
0.0909237
0.12576
0.160896
0.195686
0.229797
0.0329305
0.0746867
0.115826
0.155423
0.193498
0.230295
0.00168186
0.0570604
0.10606
0.150572
0.192143
0.232241
-0.0283696
0.0439237
0.0996735
0.147823
0.191972
0.235703
0.102982
0.124498
0.14844
0.174004
0.200471
0.227209
0.0982525
0.1208
0.145805
0.172325
0.199593
0.226972
0.0894703
0.114102
0.141152
0.169447
0.198178
0.226731
0.0766127
0.104741
0.13493
0.165795
0.196592
0.226832
0.0596813
0.0933071
0.127804
0.161924
0.195276
0.22774
0.039944
0.0815221
0.1211
0.158666
0.194702
0.229944
0.0223582
0.073187
0.116931
0.156949
0.194959
0.233353
0.11264
0.132077
0.153588
0.176474
0.200074
0.223778
0.109239
0.12941
0.151697
0.175298
0.199513
0.223721
0.103064
0.124672
0.148415
0.173324
0.198652
0.223778
0.0943655
0.118263
0.144162
0.170916
0.197791
0.22423
0.0835073
0.110785
0.139508
0.168521
0.197277
0.225444
0.0716735
0.103523
0.135402
0.166716
0.197414
0.227766
0.0618827
0.0987522
0.13308
0.165955
0.198067
0.230969
0.122182
0.139616
0.158791
0.179111
0.199986
0.220854
0.119881
0.137823
0.157543
0.178377
0.199703
0.220945
0.115802
0.134711
0.155434
0.177191
0.199323
0.221244
0.110295
0.130683
0.15284
0.175863
0.199091
0.221967
0.103846
0.126304
0.150257
0.174772
0.19929
0.223397
0.0974631
0.122572
0.148415
0.174354
0.200139
0.225764
0.0930024
0.120885
0.148039
0.174794
0.201381
0.228739
0.276493
0.314033
0.352223
0.390683
0.428369
0.462851
0.486921
0.276391
0.314368
0.352809
0.391402
0.42916
0.463776
0.488344
0.276432
0.315175
0.354029
0.392821
0.43068
0.465392
0.490126
0.277067
0.316782
0.356067
0.395007
0.432893
0.467613
0.49238
0.279042
0.319746
0.359255
0.398121
0.435856
0.470448
0.495152
0.283676
0.324929
0.364006
0.402322
0.439597
0.473873
0.498412
0.294799
0.333879
0.370778
0.407674
0.444053
0.477788
0.502058
0.268726
0.302056
0.334938
0.366676
0.396038
0.420917
0.436771
0.26874
0.302472
0.335576
0.367424
0.396846
0.421818
0.43795
0.269001
0.303435
0.336895
0.368895
0.398376
0.423397
0.439617
0.26997
0.305293
0.339098
0.37117
0.400619
0.425598
0.441808
0.272448
0.308658
0.342549
0.374431
0.403642
0.428435
0.444545
0.277891
0.314502
0.347718
0.378858
0.407482
0.431881
0.447786
0.29059
0.324623
0.355147
0.384536
0.412075
0.435831
0.45142
0.260955
0.29023
0.318372
0.344618
0.36786
0.386528
0.397777
0.261088
0.290716
0.319047
0.345381
0.368664
0.387389
0.398807
0.261557
0.291802
0.320429
0.346872
0.37018
0.388917
0.400377
0.262797
0.293821
0.322716
0.349174
0.372408
0.39107
0.402493
0.265577
0.297373
0.326266
0.352468
0.375417
0.393859
0.405161
0.27129
0.303406
0.331543
0.356931
0.379241
0.397254
0.408332
0.283994
0.313651
0.339067
0.362639
0.38381
0.401146
0.41189
0.253634
0.27917
0.303212
0.325046
0.343769
0.358269
0.366722
0.253873
0.279705
0.303902
0.325804
0.344551
0.359084
0.367647
0.254513
0.280862
0.305297
0.327272
0.346021
0.360544
0.369122
0.255935
0.282936
0.307571
0.329527
0.348181
0.362612
0.37114
0.258819
0.286463
0.311049
0.332729
0.35109
0.365294
0.373696
0.264388
0.292286
0.31614
0.337033
0.354772
0.368557
0.376738
0.276229
0.301942
0.323297
0.342492
0.359152
0.37229
0.380151
0.247007
0.269184
0.289733
0.308027
0.323354
0.334938
0.341556
0.247328
0.269743
0.290414
0.308757
0.324098
0.335699
0.342394
0.248088
0.270915
0.29177
0.310162
0.325492
0.337073
0.343769
0.249596
0.272939
0.293942
0.312298
0.327531
0.339019
0.345664
0.252405
0.276258
0.297194
0.315297
0.330261
0.34154
0.348067
0.257508
0.281555
0.301857
0.319274
0.333691
0.344596
0.350925
0.26788
0.29009
0.308285
0.324255
0.33774
0.34808
0.354125
0.241165
0.260379
0.277972
0.293409
0.306134
0.315593
0.32093
0.241542
0.260936
0.278622
0.294095
0.306827
0.316295
0.321689
0.242367
0.262074
0.279897
0.295402
0.308119
0.317565
0.322956
0.243869
0.263964
0.281895
0.297366
0.309997
0.319363
0.324706
0.246458
0.26693
0.284809
0.300076
0.312488
0.32168
0.326925
0.250832
0.271455
0.288864
0.303605
0.315584
0.324474
0.329556
0.259111
0.278407
0.294283
0.307942
0.319202
0.327643
0.332496
-0.0314103
-0.0471699
-0.0825054
-0.155195
-0.321363
-0.882016
-2.9797
-0.0240705
-0.0381056
-0.0678214
-0.122653
-0.224131
-0.426593
-0.803683
-0.010406
-0.0209218
-0.0418434
-0.0762534
-0.129722
-0.206259
-0.284335
0.00728902
0.00035921
-0.0127186
-0.0322902
-0.0586714
-0.0896289
-0.113419
0.0268911
0.0229792
0.0159846
0.00650633
-0.00440184
-0.0141948
-0.0183939
0.046715
0.0451222
0.0425646
0.0398539
0.0382521
0.0396677
0.0453323
-0.018756
-0.03236
-0.0613416
-0.115279
-0.215898
-0.417818
-0.794933
-0.011997
-0.0243732
-0.0497754
-0.0936192
-0.165434
-0.277075
-0.422047
0.000614615
-0.00886805
-0.0274583
-0.057056
-0.100199
-0.156319
-0.210143
0.0170544
0.0106986
-0.00124883
-0.0189537
-0.0423043
-0.0687246
-0.0894231
0.0353657
0.0317403
0.0252277
0.0163197
0.00588087
-0.00401866
-0.00987708
0.053964
0.0524949
0.0501029
0.0474635
0.0456078
0.0460442
0.0496095
-0.00183986
-0.0118283
-0.0318782
-0.065287
-0.117901
-0.194075
-0.272507
0.00418299
-0.00514573
-0.0234908
-0.0528288
-0.095786
-0.151876
-0.205834
0.0152884
0.00793852
-0.00606646
-0.0272625
-0.0559028
-0.0891955
-0.1166
0.0298989
0.0248851
0.0156364
0.00239096
-0.0141855
-0.0315371
-0.0437884
0.0463496
0.0435018
0.0384584
0.0317389
0.0241846
0.0174541
0.0137869
0.0632169
0.0621613
0.0605038
0.0588402
0.0580544
0.059323
0.0630292
0.0173282
0.0108103
-0.00162287
-0.0205472
-0.0465577
-0.0777166
-0.102376
0.0226495
0.0164196
0.00464839
-0.0129329
-0.0363215
-0.0630077
-0.0840976
0.0321727
0.0271638
0.0179053
0.00460279
-0.0121068
-0.0296636
-0.0421051
0.0447596
0.0413351
0.0351742
0.0267263
0.0167927
0.00725192
0.00125381
0.0590843
0.0572287
0.0540371
0.0500118
0.0458758
0.0427278
0.0415034
0.0739347
0.0734463
0.0728049
0.072515
0.0732873
0.0759083
0.0801686
0.0370599
0.0333302
0.0265606
0.017138
0.00586772
-0.0049195
-0.0106518
0.0417795
0.0381422
0.0315495
0.0223892
0.0114236
0.000707883
-0.00597863
0.0498502
0.0469165
0.0416884
0.0346426
0.0265864
0.0192169
0.0150099
0.0604862
0.0585572
0.055221
0.0509666
0.0465083
0.042975
0.0414395
0.0726813
0.0718131
0.0704378
0.068995
0.0680524
0.0681952
0.0692516
0.0854511
0.085554
0.0859695
0.0871017
0.089492
0.0935669
0.0985264
0.056155
0.054468
0.0516372
0.0482871
0.0454471
0.0448412
0.0479254
0.0603776
0.058702
0.0558719
0.0524612
0.0493837
0.0481267
0.0499293
0.0672038
0.0659151
0.0637963
0.0613912
0.0595242
0.0593951
0.0617376
0.0761014
0.0754168
0.0743965
0.0735194
0.0734633
0.0750343
0.0782729
0.0863306
0.0863206
0.0865186
0.0873176
0.0892397
0.0927116
0.0970532
0.0971216
0.0977533
0.0991215
0.101556
0.105524
0.111325
0.117912
0.324716
0.348114
0.37951
0.413889
0.448957
0.481982
0.505915
0.338872
0.358623
0.387195
0.419781
0.453755
0.486135
0.509749
0.347679
0.366198
0.393365
0.424858
0.458077
0.489978
0.513346
0.353487
0.371448
0.397968
0.428909
0.461711
0.493328
0.516544
0.356351
0.374346
0.400919
0.431829
0.464552
0.496086
0.519249
0.354596
0.374341
0.402096
0.433605
0.466595
0.498235
0.521433
0.323965
0.34079
0.364787
0.391141
0.417125
0.440057
0.455258
0.339872
0.352366
0.373009
0.397264
0.421994
0.444202
0.45905
0.349053
0.36018
0.379286
0.402356
0.426279
0.447981
0.462571
0.354278
0.365028
0.38362
0.406217
0.429767
0.45121
0.46566
0.355766
0.366983
0.38598
0.408768
0.432368
0.453798
0.468226
0.351774
0.365507
0.386286
0.410034
0.434101
0.455743
0.470256
0.316278
0.329756
0.348751
0.369245
0.388817
0.4053
0.415643
0.332123
0.341328
0.356955
0.375316
0.393607
0.409351
0.419334
0.341143
0.348991
0.363094
0.380279
0.397768
0.413011
0.422739
0.345968
0.353503
0.367167
0.383935
0.40109
0.416098
0.425698
0.346867
0.354976
0.369166
0.386222
0.403493
0.41853
0.428128
0.342288
0.352967
0.369061
0.387192
0.405014
0.420315
0.430023
0.305587
0.316869
0.332409
0.348768
0.363933
0.376264
0.383743
0.320278
0.327686
0.340142
0.354526
0.368495
0.380132
0.387271
0.328685
0.334857
0.345919
0.359219
0.372445
0.383616
0.390517
0.333143
0.339045
0.349723
0.362656
0.375585
0.386545
0.393331
0.333912
0.340362
0.351553
0.364782
0.377841
0.388843
0.395636
0.329651
0.338444
0.351407
0.365658
0.379254
0.390521
0.397427
0.293116
0.303054
0.316358
0.329933
0.34214
0.35178
0.357491
0.305858
0.312551
0.323266
0.335168
0.346349
0.355386
0.3608
0.313297
0.318961
0.3285
0.339477
0.350017
0.358648
0.363852
0.317393
0.322822
0.332027
0.342683
0.352962
0.361407
0.36651
0.318363
0.324227
0.333842
0.344734
0.355116
0.363594
0.368701
0.315073
0.322872
0.333947
0.345685
0.356515
0.365217
0.370421
0.278458
0.288576
0.30092
0.312821
0.32311
0.331002
0.335587
0.288426
0.296258
0.30673
0.31738
0.326878
0.334291
0.338636
0.294586
0.301697
0.31129
0.321226
0.330214
0.337297
0.341471
0.298341
0.305241
0.31454
0.324197
0.332959
0.339881
0.343966
0.299838
0.306944
0.316462
0.326241
0.335048
0.341976
0.346055
0.298259
0.306596
0.317059
0.327395
0.336503
0.343583
0.347729
0.0655256
0.0656071
0.0661516
0.0679726
0.0724425
0.0818209
0.101277
0.0824781
0.0836792
0.0862148
0.0907082
0.0982292
0.110322
0.129383
0.0970625
0.0989645
0.102693
0.108649
0.117547
0.130265
0.147754
0.109014
0.111329
0.115733
0.122441
0.131903
0.144594
0.160885
0.118225
0.120771
0.125534
0.132601
0.14225
0.154732
0.170186
0.124691
0.127358
0.132303
0.139527
0.149208
0.161481
0.176392
0.128228
0.130959
0.135985
0.143269
0.152942
0.165086
0.179713
0.0716696
0.0717889
0.072364
0.0741308
0.0783771
0.0873265
0.106555
0.0876649
0.0888502
0.0913458
0.0957319
0.103047
0.114863
0.133801
0.101445
0.103295
0.106938
0.112744
0.121411
0.133826
0.15101
0.112747
0.114986
0.119271
0.125795
0.134991
0.147327
0.163181
0.121462
0.123916
0.128539
0.135396
0.144749
0.156835
0.17178
0.127585
0.13015
0.13494
0.141938
0.151303
0.163155
0.177521
0.130934
0.13356
0.138424
0.145473
0.15482
0.166531
0.180597
0.0793992
0.0797088
0.0806029
0.0827315
0.0872509
0.0961608
0.114579
0.0941013
0.0953439
0.0979267
0.102364
0.109606
0.121099
0.139294
0.106817
0.108647
0.112247
0.117943
0.126373
0.138356
0.154841
0.117275
0.119451
0.12362
0.129945
0.138821
0.150673
0.165837
0.125359
0.127723
0.132189
0.138799
0.147789
0.159364
0.17362
0.131047
0.133509
0.138118
0.144843
0.153823
0.165151
0.17883
0.134162
0.136676
0.141348
0.148114
0.157065
0.168246
0.181628
0.0883224
0.0889151
0.0902924
0.0929969
0.0980026
0.106954
0.12414
0.101493
0.102844
0.105592
0.110167
0.11738
0.128458
0.145484
0.112954
0.114789
0.118373
0.123972
0.132136
0.143562
0.159046
0.122426
0.124546
0.128597
0.134705
0.143207
0.154458
0.168725
0.129773
0.132049
0.136342
0.142673
0.151239
0.162204
0.175625
0.134957
0.137312
0.14172
0.148135
0.156669
0.167388
0.180268
0.137802
0.140199
0.144656
0.151098
0.159594
0.170168
0.182768
0.0979442
0.0988435
0.100743
0.104068
0.109592
0.118559
0.13428
0.109477
0.11095
0.113882
0.118604
0.12577
0.136339
0.151934
0.119586
0.12143
0.124998
0.130488
0.138343
0.149108
0.163388
0.127991
0.130055
0.133978
0.139843
0.14792
0.158479
0.171705
0.134542
0.136724
0.140829
0.146851
0.154944
0.165223
0.177706
0.13918
0.141422
0.14561
0.151684
0.159727
0.169774
0.181776
0.141732
0.144005
0.148228
0.154315
0.162314
0.172225
0.183978
0.107763
0.108941
0.111314
0.115204
0.121209
0.130223
0.144498
0.11767
0.119249
0.122336
0.127168
0.134242
0.144244
0.158281
0.126422
0.128264
0.131795
0.137144
0.144645
0.154682
0.16765
0.133747
0.135745
0.139523
0.145118
0.152729
0.16254
0.174646
0.139488
0.141569
0.145469
0.151158
0.158743
0.168293
0.179783
0.143568
0.14569
0.149644
0.155356
0.162878
0.172217
0.183303
0.14582
0.147963
0.151938
0.157651
0.165127
0.174344
0.185217
0.145647
0.178261
0.208681
0.239367
0.271046
0.304617
0.157731
0.185853
0.214144
0.243229
0.273406
0.304917
0.170341
0.194895
0.220817
0.248045
0.276585
0.30645
0.180706
0.202891
0.226914
0.252556
0.279717
0.30835
0.188496
0.209161
0.231822
0.25627
0.282389
0.31013
0.193842
0.213571
0.235339
0.258977
0.284385
0.311523
0.196738
0.21599
0.237289
0.260494
0.285518
0.312333
0.152762
0.185034
0.213747
0.241978
0.270779
0.301324
0.162601
0.190135
0.216965
0.244001
0.271706
0.300412
0.173353
0.197137
0.221748
0.247209
0.273569
0.300826
0.182459
0.20378
0.226571
0.250606
0.275766
0.301931
0.18943
0.209195
0.230667
0.253599
0.277822
0.30319
0.194268
0.213086
0.233692
0.255866
0.279439
0.304264
0.196905
0.215245
0.235396
0.257162
0.280383
0.304915
0.158187
0.188772
0.215572
0.241534
0.267734
0.295338
0.166794
0.192875
0.217942
0.242872
0.268137
0.294055
0.176173
0.198672
0.221688
0.245226
0.269324
0.293936
0.184187
0.204322
0.225641
0.247896
0.270932
0.294571
0.190378
0.209017
0.229101
0.25035
0.272548
0.295477
0.194704
0.212434
0.231704
0.252258
0.273869
0.296313
0.197073
0.214344
0.233186
0.253363
0.274655
0.296837
0.163255
0.191241
0.215773
0.239388
0.263033
0.287726
0.17071
0.194717
0.217722
0.240447
0.263283
0.286475
0.178849
0.199672
0.22086
0.24237
0.26419
0.286228
0.185855
0.204554
0.224227
0.244603
0.265494
0.286674
0.191305
0.208647
0.22721
0.246692
0.266843
0.287397
0.195136
0.211648
0.229475
0.248335
0.267965
0.288091
0.19724
0.213332
0.230771
0.249293
0.268639
0.288534
0.167981
0.192816
0.214827
0.236034
0.257172
0.279048
0.174337
0.195883
0.216628
0.237096
0.257555
0.278152
0.181344
0.200239
0.219459
0.238901
0.258497
0.278103
0.187425
0.204528
0.222459
0.240934
0.259731
0.278598
0.192189
0.208129
0.225106
0.242809
0.260968
0.279292
0.195554
0.210775
0.227113
0.244277
0.261983
0.279935
0.197408
0.212262
0.228262
0.245131
0.26259
0.280339
0.17199
0.193305
0.212665
0.231463
0.250194
0.269418
0.177493
0.19636
0.214772
0.233012
0.251212
0.269409
0.183571
0.200417
0.21763
0.235042
0.252528
0.269901
0.188857
0.204296
0.220471
0.237088
0.253904
0.27065
0.19301
0.207513
0.222905
0.23888
0.255156
0.271438
0.195953
0.209865
0.224726
0.240246
0.256139
0.272101
0.197579
0.211184
0.225762
0.241033
0.256714
0.272502
0.340795
0.370656
0.40166
0.43444
0.467971
0.499845
0.523134
0.337507
0.369165
0.401524
0.435052
0.46898
0.501055
0.52443
0.33749
0.369118
0.401815
0.435644
0.469775
0.501966
0.525391
0.338384
0.369668
0.402331
0.436217
0.470408
0.50263
0.526056
0.339468
0.370385
0.402892
0.43672
0.470884
0.503068
0.526437
0.340395
0.37102
0.403365