/*--------------------------------*- C++ -*----------------------------------*\
  =========                 |
  \\      /  F ield         | OpenFOAM: The Open Source CFD Toolbox
   \\    /   O peration     | Website:  https://openfoam.org
    \\  /    A nd           | Version:  7
     \\/     M anipulation  |
\*---------------------------------------------------------------------------*/
FoamFile
{
    version     2.0;
    format      ascii;
    class       surfaceScalarField;
    location    "0.25";
    object      phi;
}
// * * * * * * * * * * * * * * * * * * * * * * * * * * * * * * * * * * * * * //

dimensions      [0 3 -1 0 0 0 0];

internalField   nonuniform List<scalar> 
22044
(
0.521743
0.0298585
0.000389056
0.52012
0.0339467
0.000468229
0.51711
0.0401207
0.000607749
0.512699
0.048245
0.000938859
0.507277
0.0578791
0.00131335
0.501335
0.0683485
0.00171305
0.0785759
0.00209185
0.495488
0.52583
0.0272732
0.000513753
0.526322
0.0326996
0.000755552
0.525144
0.0400194
0.0012794
0.522253
0.0490766
0.00205851
0.517641
0.0593967
0.00309463
0.51143
0.0701811
0.00437875
0.0802298
0.00580429
0.503972
0.531225
0.0224826
0.000681925
0.533639
0.0290133
0.00127142
0.534158
0.0372791
0.00222138
0.53251
0.0470871
0.00363769
0.528333
0.0579545
0.0056191
0.521373
0.0689647
0.00817673
0.0787131
0.0111211
0.511769
0.537837
0.0155097
0.00102482
0.541943
0.0229269
0.00198019
0.543966
0.0317353
0.00352144
0.543343
0.0418269
0.00588287
0.539281
0.052722
0.00929467
0.531068
0.0633309
0.0138468
0.0718715
0.0192332
0.518676
0.54532
0.00681675
0.00138971
0.550809
0.0145701
0.00286758
0.554091
0.023207
0.00524604
0.554237
0.0327121
0.00896896
0.549867
0.0425686
0.0145237
0.539646
0.0513612
0.0221902
0.0565245
0.0314823
0.523511
0.553158
-0.00295199
0.00175094
0.559532
0.00428496
0.00391125
0.56366
0.0116985
0.00738034
0.564111
0.0193217
0.01294
0.558644
0.0265178
0.0215173
0.544949
0.0312918
0.0337649
0.0294041
0.0488393
0.52323
0.560507
0.00205371
-0.0129027
0.567053
0.00500993
-0.00727017
0.571355
0.00975236
-0.00235578
0.57128
0.0175323
0.0018638
0.563241
0.0299059
0.00465108
0.543019
0.0480382
0.00347572
0.0693906
0.511355
-0.00832268
0.0658879
0.0351862
0.000457705
0.0641185
0.0400881
0.000714035
0.0605554
0.0475994
0.00109875
0.0554486
0.0575299
0.00168823
0.0491408
0.0694732
0.00240715
0.0421758
0.0826308
0.0032003
0.0956758
0.00397539
0.0352707
0.0707885
0.0322727
0.000774024
0.0715549
0.038766
0.0013113
0.0704071
0.0477378
0.00228888
0.0672812
0.0589697
0.00374463
0.0621206
0.0719977
0.00573075
0.0549841
0.0859092
0.00823678
0.0992075
0.0110761
0.0461807
0.0773512
0.0266106
0.00118118
0.0805249
0.0346224
0.00224134
0.0815924
0.0448857
0.00400586
0.0802085
0.0573005
0.0066909
0.075863
0.0714476
0.0105147
0.0680673
0.0863262
0.0155554
0.100154
0.0215139
0.0567282
0.0854305
0.0184863
0.00175269
0.090831
0.0276833
0.00351881
0.0940083
0.0388113
0.00641862
0.094293
0.051962
0.0109367
0.0906039
0.066825
0.0176064
0.0817272
0.0822834
0.0267665
0.0959892
0.0380434
0.0670817
0.0947165
0.00832709
0.00240119
0.102053
0.0180591
0.00515538
0.107225
0.0292246
0.00966121
0.109156
0.0421345
0.0168653
0.105981
0.0565882
0.0279353
0.0953882
0.0711895
0.0438769
0.0822473
0.0644321
0.0761803
0.104594
-0.00314553
0.00305517
0.113378
0.00608182
0.0071041
0.120274
0.0159774
0.0137311
0.123672
0.0270203
0.024657
0.120533
0.0390074
0.0422363
0.106656
0.0498532
0.068979
0.0523241
0.105546
0.0798726
0.114022
0.00361127
-0.0148889
0.123489
0.00918604
-0.00756115
0.131509
0.0183426
-0.000633077
0.135693
0.0339598
0.00640906
0.13097
0.06034
0.0132965
0.108836
0.103072
0.0169534
0.16284
0.064347
0.00336368
0.0262097
0.0359168
0.000390434
0.0245312
0.0411881
0.000633526
0.0210822
0.049312
0.00108553
0.0160584
0.0602198
0.00176371
0.0097644
0.0736002
0.00263857
0.00271344
0.0886832
0.00365191
0.104031
-0.00438596
0.00469084
0.0314802
0.0330449
0.000635335
0.0326251
0.0401135
0.00124096
0.031927
0.0499729
0.00232612
0.0293015
0.0625851
0.00400471
0.0246013
0.0776527
0.00637846
0.0177082
0.0943494
0.00946378
0.111046
0.00870142
0.0130669
0.0385751
0.027436
0.00103232
0.0424848
0.0362583
0.00218692
0.0444915
0.0477934
0.00417871
0.044234
0.0622224
0.00731109
0.0410383
0.0794572
0.0119059
0.0340243
0.0987626
0.0181563
0.118253
0.0225007
0.0258313
0.0474501
0.0193142
0.00158912
0.0540706
0.0296136
0.00354309
0.0589277
0.0424953
0.00685959
0.0613755
0.0585316
0.0121797
0.0600855
0.0780671
0.0202864
0.0530799
0.100651
0.0318835
0.123963
0.0384087
0.0470045
0.0578628
0.0090654
0.00225355
0.0670867
0.0202071
0.00533799
0.0750749
0.0336384
0.0105299
0.0809186
0.0504641
0.0190892
0.0824598
0.0716848
0.0327765
0.075954
0.0973471
0.053687
0.124
0.0571566
0.0831925
0.0692075
-0.00261357
0.00294173
0.0807678
0.00823953
0.00751142
0.0921674
0.0207816
0.0151883
0.102318
0.0366596
0.0283106
0.108002
0.0576099
0.0506274
0.102415
0.0842827
0.0876309
0.108712
0.0771429
0.146106
0.0803592
-0.0146756
0.00353636
0.0936839
-0.0057582
0.00985901
0.1085
0.00379247
0.0205157
0.123621
0.0159434
0.0395555
0.134052
0.0331501
0.0743683
0.124926
0.0577393
0.138741
0.0740581
0.0674712
0.254948
0.490346
0.0871893
0.00239752
0.486365
0.0928281
0.00258839
0.483914
0.094528
0.00261037
0.483321
0.091902
0.00242271
0.484831
0.0852145
0.00201974
0.0754156
0.0014526
0.488482
0.495896
0.0881128
0.00715221
0.488035
0.0925513
0.00813839
0.481323
0.0926953
0.00854431
0.476736
0.0882402
0.00824874
0.475193
0.0795226
0.00723512
0.0676634
0.00563633
0.477309
0.500287
0.0856171
0.0139778
0.488172
0.0885711
0.0160952
0.476908
0.0869383
0.0170203
0.468123
0.080514
0.0165115
0.46351
0.0696304
0.0145056
0.0554796
0.0112112
0.464482
0.503273
0.0764976
0.0245225
0.48657
0.0768534
0.0284208
0.470516
0.0728528
0.0301394
0.457311
0.06445
0.029269
0.449521
0.0518075
0.0256133
0.0358756
0.0193626
0.449762
0.503821
0.0556033
0.0405845
0.482661
0.0508532
0.0471605
0.462108
0.0433624
0.0500429
0.444638
0.0332879
0.0486328
0.433659
0.0203757
0.0424108
0.00477134
0.0311606
0.433602
0.499511
0.0165523
0.0627697
0.47532
0.00248058
0.0725636
0.451951
-0.0100375
0.0767692
0.431505
-0.0209415
0.0746749
0.417897
-0.0311085
0.0650925
-0.0416237
0.0462886
0.418004
0.485858
0.0805483
-0.0384986
0.462812
0.0898734
-0.064347
0.440852
0.093817
-0.0818943
0.421015
0.0910018
-0.0921068
0.407107
0.0791582
-0.0963584
0.0533766
0.408382
-0.0962756
0.0291457
0.106827
0.00462332
0.0243243
0.114239
0.00504278
0.0212545
0.116617
0.00512248
0.0203547
0.113427
0.00478641
0.0219648
0.104966
0.00402588
0.0924306
0.00293847
0.0261907
0.0363899
0.109953
0.0138174
0.0266387
0.11628
0.0158493
0.018116
0.116962
0.0167225
0.0120692
0.111522
0.0161995
0.00971749
0.100306
0.0142468
0.0846951
0.011116
0.0119733
0.0425973
0.1106
0.0274609
0.0272864
0.115775
0.0319107
0.0127344
0.114618
0.0339161
0.00103582
0.106723
0.0330095
-0.00555109
0.0923388
0.0290598
0.0728256
0.0224414
-0.0049119
0.0477648
0.104817
0.0496231
0.0261495
0.107613
0.0581982
0.00487619
0.103945
0.0620852
-0.01322
0.0935553
0.060533
-0.0246984
0.0762991
0.0531314
0.0528718
0.0400962
-0.0254782
0.0508566
0.0844634
0.0862615
0.0226237
0.0811108
0.101896
-0.00555418
0.0732321
0.108934
-0.0305683
0.0607293
0.106473
-0.04791
0.0426385
0.093413
0.0177959
0.0686477
-0.0503212
0.0485289
0.0333956
0.145181
0.0151117
0.015131
0.17196
-0.0182511
-0.000319285
0.183683
-0.0492731
-0.0138615
0.180288
-0.0732193
-0.0275808
0.159258
-0.0452213
0.11448
-0.0783939
0.0315501
0.20351
-0.0567688
-0.000141222
0.236312
-0.0996162
-0.0321327
0.250594
-0.125105
-0.0638927
0.246767
-0.137867
-0.0920149
0.220411
-0.140711
0.154294
-0.100694
-0.13746
-0.0107998
0.1175
0.00559984
-0.0160075
0.12668
0.00621266
-0.0195214
0.129911
0.00638707
-0.0208496
0.126488
0.00603735
-0.0195425
0.116685
0.00515473
0.101863
-0.0153585
0.00385332
-0.00188893
0.125255
0.0166519
-0.0128871
0.134168
0.0193597
-0.0228859
0.136034
0.0205984
-0.0304099
0.130139
0.0200725
-0.0339343
0.116721
0.017735
0.0972814
-0.0321166
0.0138795
0.00676334
0.134639
0.033815
-0.0111194
0.144103
0.0398581
-0.0287233
0.144858
0.0426961
-0.0435591
0.136219
0.041766
-0.0527982
0.118127
0.0368936
0.0917217
-0.0532742
0.0284771
0.0160222
0.143063
0.0635852
-0.0104232
0.152857
0.07589
-0.0373512
0.152242
0.0816287
-0.0614487
0.140824
0.0800256
-0.0784534
0.117715
0.0705472
0.082096
-0.0818942
0.0531626
0.0259677
0.142134
0.11838
-0.0109141
0.148595
0.14304
-0.0489011
0.144844
0.15432
-0.0847605
0.131279
0.151877
-0.113401
0.105481
0.134288
0.0611983
-0.122652
0.0987964
0.0339719
0.102239
0.228247
-0.0139888
0.090399
0.278117
-0.0628213
0.07773
0.29963
-0.111905
0.0637936
0.296857
-0.158376
0.0445697
0.26664
0.00488045
-0.182881
0.195303
0.0237381
-0.0668572
0.422926
-0.0260601
-0.136856
0.513366
-0.0760351
-0.171047
0.549346
-0.130732
-0.183649
0.548906
-0.195358
-0.178312
0.507918
-0.255639
-0.164668
0.384123
0.493917
0.0640675
0.000846516
0.500326
0.052959
0.000363284
0.506785
0.0433759
6.45762e-05
0.512544
0.0359733
-7.0757e-05
0.517122
0.0309598
-9.50852e-05
0.520332
0.0282986
-6.3263e-05
0.0279689
0.000141804
0.482929
0.0546396
0.00380783
0.490792
0.0428306
0.00226486
0.499386
0.0335819
0.00120042
0.507528
0.0272603
0.000570641
0.514502
0.023728
0.000258267
0.519954
0.0226953
0.000151492
0.0239459
0.00021802
0.471213
0.0405462
0.00736209
0.481536
0.0282623
0.00424565
0.49301
0.019911
0.00219654
0.503942
0.0152997
0.00102862
0.513445
0.0137646
0.00046135
0.521181
0.014681
0.000278257
0.0176504
0.000360272
0.458951
0.0195154
0.0118421
0.47307
0.00790952
0.00623376
0.488258
0.00183366
0.0028893
0.502297
9.57012e-05
0.00116462
0.514295
0.00134123
0.000425839
0.524105
0.00460974
0.000261574
0.00939096
0.000474762
0.447205
-0.0109253
0.0168381
0.466712
-0.0190792
0.00748171
0.486278
-0.0204257
0.00269324
0.503392
-0.0176341
0.000616185
0.517492
-0.0127114
-4.78411e-05
0.528867
-0.00676825
3.19345e-06
-0.000246421
0.000487911
0.438639
-0.0513684
0.0198075
0.464907
-0.0511771
0.00583028
0.488779
-0.0446427
0.000344387
0.508181
-0.0357812
-0.00125446
0.523404
-0.0266798
-0.00125462
0.535416
-0.018153
-0.000627121
-0.0103174
0.00034627
0.438341
0.0115353
-0.0928623
0.471054
-0.00356106
-0.0803292
0.4975
-0.00619694
-0.0648924
0.517284
-0.00521273
-0.0503524
0.531997
-0.00345539
-0.0379366
0.543343
-0.00171574
-0.0277842
6.05089e-06
-0.0195904
0.0326434
0.0778872
0.0017649
0.0402913
0.0638031
0.000824017
0.0479851
0.0518158
0.000233156
0.054823
0.0426627
-5.1574e-05
0.0602348
0.0365195
-0.000124846
0.0639248
0.033302
-6.37502e-05
0.0328811
0.000153519
0.0187743
0.0673895
0.00750461
0.0283883
0.051984
0.00446992
0.0388349
0.0401881
0.00238149
0.0486558
0.0322736
0.00113887
0.0570176
0.0279087
0.000507322
0.0635459
0.0266441
0.000281045
0.0281478
0.000361916
0.00355664
0.0516739
0.0146092
0.0165787
0.03485
0.00835755
0.0308252
0.0238415
0.0042966
0.0441949
0.0179406
0.00199198
0.0556918
0.0160108
0.00086242
0.0650127
0.0171277
0.000473733
0.0207368
0.000595713
-0.0131906
0.027204
0.0240243
0.00535233
0.0101249
0.0124159
0.0246683
0.00174299
0.0056719
0.042074
-0.000540679
0.00224014
0.0566984
0.00104676
0.000765577
0.0685694
0.00511318
0.00040508
0.0109869
0.000760041
-0.0305468
-0.0112064
0.035474
-0.00362884
-0.0245102
0.0151989
0.0219146
-0.0264381
0.00533089
0.0433869
-0.0225558
0.001159
0.060642
-0.016082
-0.000174247
0.0744184
-0.00853913
-0.000120909
-0.000424966
0.000749443
-0.0450505
-0.0691647
0.0444225
-0.00671347
-0.0690651
0.0120481
0.025171
-0.0585503
0.000572225
0.0496017
-0.0456598
-0.00258114
0.0681263
-0.0333073
-0.00255396
0.0825788
-0.0222587
-0.00136006
-0.0123753
0.000450401
-0.0472197
0.0261123
-0.137216
0.00261343
-0.00971074
-0.112749
0.0377458
-0.0135758
-0.0863039
0.061976
-0.0107379
-0.0643649
0.0793051
-0.00694349
-0.0471482
0.0926268
-0.00349066
-0.0338056
-0.000219704
-0.0233591
-0.00862647
0.0845924
0.00242465
-0.000566912
0.0681707
0.00126944
0.00750575
0.05451
0.000526952
0.0146276
0.0442824
0.000138302
0.0202368
0.0375124
-1.1618e-05
0.0240673
0.0339927
-1.16508e-05
0.0335065
0.000118617
-0.0247263
0.0753343
0.00937246
-0.0141096
0.0564191
0.00560475
-0.00272034
0.0424836
0.00301866
0.00781859
0.0334192
0.00146309
0.016682
0.0285183
0.00063802
0.0235714
0.02709
0.00029427
0.02867
0.000300304
-0.0433149
0.0616496
0.0183346
-0.0280638
0.0391389
0.0103867
-0.0119213
0.0253355
0.00530207
0.00278377
0.0182837
0.00242247
0.0151638
0.0160218
0.000978969
0.0251055
0.0172
0.000421999
0.0210902
0.000463653
-0.0656077
0.0383836
0.0310038
-0.042217
0.0125008
0.0156633
-0.0193597
0.00111205
0.00703811
0.000250724
-0.00179026
0.00270368
0.0161931
3.58077e-05
0.000809159
0.0289377
0.00459867
0.000261818
0.0110677
0.00055544
-0.0919181
-0.00522383
0.0483477
-0.054733
-0.0292639
0.0197785
-0.0230439
-0.032012
0.0067659
0.00166007
-0.0267423
0.00140698
0.0205808
-0.01871
-0.00034918
0.0353754
-0.00989782
-0.000419041
-0.000740017
0.000466328
-0.119358
-0.0913559
0.0670315
-0.0602419
-0.0926661
0.0163341
-0.0189668
-0.0735298
0.000814904
0.00926442
-0.054333
-0.00322167
0.0293028
-0.0380403
-0.00326206
0.0445957
-0.0246104
-0.00194043
-0.0131645
5.55138e-05
-0.126558
-0.233038
0.0387136
-0.0445642
-0.166549
-0.0178219
-0.000346789
-0.11251
-0.018813
0.0256472
-0.0772714
-0.0137935
0.0429562
-0.0535554
-0.00873746
0.0562839
-0.0368855
-0.00454335
-0.0245441
-0.000778409
0.566257
-0.021971
0.00223606
0.572071
-0.0190612
0.00597683
0.575631
-0.0178882
0.0119732
0.573952
-0.0184806
0.0220233
0.561484
-0.0213289
0.0384483
0.530231
-0.0279553
0.0626835
-0.0427955
0.0836112
0.481093
0.569246
-0.0290735
0.00224358
0.573308
-0.0296682
0.00654504
0.575086
-0.033075
0.013409
0.571101
-0.0396278
0.0251319
0.55465
-0.049933
0.0450551
0.514987
-0.0646739
0.0763815
-0.0829238
0.102573
0.452543
0.568645
-0.0331961
0.00202535
0.569841
-0.0373016
0.00643727
0.568395
-0.0448655
0.0132366
0.560557
-0.0562572
0.0244672
0.539668
-0.0716193
0.0425757
0.496725
-0.0901359
0.0684053
-0.108278
0.0859989
0.43608
0.564467
-0.0337199
0.00162143
0.562163
-0.0407448
0.00574708
0.55687
-0.0514328
0.0118606
0.545118
-0.0661601
0.0216548
0.521298
-0.084744
0.0369452
0.478937
-0.105493
0.057718
-0.123751
0.0695562
0.424853
0.557319
-0.0304534
0.00107936
0.551322
-0.0393245
0.00457689
0.542005
-0.0516146
0.00949803
0.526524
-0.0677829
0.0171039
0.500827
-0.0877137
0.0286668
0.461102
-0.10975
0.0439823
-0.129036
0.0510043
0.415383
0.548287
0.00046445
-0.0236655
0.538827
0.0030633
-0.0329283
0.525613
0.0063371
-0.0447381
0.506426
0.0108683
-0.0594635
0.478812
0.016915
-0.0770152
0.441923
0.0232799
-0.0961409
0.0197084
0.405963
-0.112784
0.121571
-0.0256539
0.00396256
0.130655
-0.0217301
0.0110623
0.138774
-0.0195705
0.0227909
0.142506
-0.0188159
0.0435168
0.133126
-0.019392
0.0805164
0.0906433
-0.0225912
0.144711
-0.0377605
0.213086
0.00229276
0.125653
-0.0341653
0.00401642
0.132992
-0.0347539
0.0122289
0.139801
-0.038783
0.0258126
0.14237
-0.0468242
0.050572
0.130372
-0.060187
0.0978476
0.0743454
-0.0808099
0.190627
-0.106696
0.29465
-0.0487968
0.12505
-0.0391622
0.00367807
0.128835
-0.0442408
0.0121394
0.131399
-0.0537542
0.0256442
0.128162
-0.0684664
0.0493461
0.108055
-0.0891014
0.0915971
0.0466346
-0.11527
0.164286
-0.140657
0.23403
-0.0674358
0.119847
-0.0399064
0.00301027
0.119113
-0.0487281
0.0109686
0.116408
-0.0623942
0.0232061
0.107304
-0.0817819
0.0440737
0.0821865
-0.107232
0.0801937
0.0218944
-0.13693
0.13967
-0.162465
0.190856
-0.0775975
0.110817
-0.0361557
0.00208068
0.105179
-0.0473836
0.00887004
0.0967746
-0.0633275
0.0188355
0.081887
-0.0851653
0.0353748
0.0532779
-0.113684
0.0637279
-0.00300281
-0.147681
0.111014
-0.179029
0.151404
-0.0868379
0.0993037
0.000994237
-0.028177
0.0888472
0.00606491
-0.0399287
0.0744648
0.012781
-0.055389
0.0529634
0.0229523
-0.075748
0.0193737
0.0390493
-0.102229
-0.0341572
0.064425
-0.135295
0.0762375
-0.100475
-0.169241
0.089625
-0.0258474
0.00393093
0.103706
-0.0207912
0.0120142
0.121369
-0.0168195
0.0257397
0.141661
-0.0122907
0.0514591
0.156613
-0.00407837
0.102793
0.124981
0.0166755
0.217407
0.0527171
-0.0964386
0.449259
0.0949468
-0.0348328
0.00405869
0.108096
-0.0351767
0.0134654
0.126887
-0.0392925
0.0294943
0.152792
-0.0482793
0.0606557
0.183449
-0.0654947
0.128607
0.170081
-0.101772
0.322443
-0.16348
-0.214267
0.895195
0.0945796
-0.0402143
0.00384134
0.103736
-0.0458581
0.0136646
0.116993
-0.0567635
0.0298582
0.132306
-0.074523
0.0602766
0.138418
-0.101605
0.121595
0.0828921
-0.140863
0.258903
-0.176853
-0.203702
0.533997
0.0887651
-0.0412278
0.0032989
0.0925099
-0.051322
0.0126876
0.0986977
-0.0674487
0.0277034
0.104492
-0.0915145
0.0552709
0.0989808
-0.125414
0.109514
0.0400374
-0.168304
0.226054
-0.198157
-0.198784
0.450981
0.0783861
-0.0375884
0.00244741
0.0759991
-0.0506429
0.0105779
0.0742642
-0.0699916
0.0231132
0.0707524
-0.0984146
0.0457866
0.0578811
-0.139469
0.090654
0.00464907
-0.195382
0.191324
-0.245357
-0.198355
0.401608
0.0649171
-0.0294568
0.00136669
0.0560286
-0.0432053
0.00751578
0.0449635
-0.0623375
0.016192
0.0287493
-0.0901185
0.0308703
0.00181434
-0.132329
0.058845
-0.0552616
-0.199145
0.125264
-0.215653
-0.292684
0.283955
0.459323
-0.0714135
0.0546849
0.444639
-0.0953806
0.0457176
0.430366
-0.110747
0.0431254
0.416835
-0.11804
0.039465
0.407706
-0.118456
0.0312263
-0.113702
0.0120842
0.413048
0.435019
-0.0994244
0.045535
0.428871
-0.113597
0.0243646
0.422808
-0.122415
0.0177313
0.416279
-0.12473
0.0132191
0.412562
-0.120889
0.00614962
-0.112238
-0.011049
0.422147
0.421159
-0.119122
0.0346193
0.420162
-0.12657
0.0139696
0.420433
-0.129256
0.00657003
0.419974
-0.126193
0.00192072
0.421118
-0.117386
-0.00464707
-0.103899
-0.0212939
0.434074
0.41387
-0.132684
0.0245452
0.417634
-0.135786
0.00545201
0.423532
-0.133504
-0.00164927
0.4287
-0.125496
-0.0058653
0.434467
-0.111596
-0.0115564
-0.0925579
-0.0267859
0.449911
0.410677
-0.137657
0.00967853
0.419996
-0.137286
-0.00781877
0.431641
-0.131025
-0.0141246
0.442635
-0.119194
-0.0172956
0.4534
-0.101263
-0.0210977
-0.0773031
-0.0326921
0.470837
0.410667
-0.0236681
-0.118693
0.426293
-0.0386195
-0.114293
0.44372
-0.0432735
-0.105178
0.460884
-0.0443064
-0.0920516
0.477563
-0.0440798
-0.0738625
-0.0471893
0.497298
-0.0498484
-0.0146998
-0.0859705
0.100879
-0.0273265
-0.122686
0.0814137
-0.0447207
-0.1441
0.0795143
-0.0649055
-0.15336
0.0751433
-0.0844789
-0.152885
0.0629736
-0.146396
0.0252432
-0.088702
-0.0533747
-0.117988
0.0821306
-0.0498105
-0.134939
0.0330543
-0.0544812
-0.146099
0.0244008
-0.0646195
-0.148926
0.0189229
-0.077022
-0.143944
0.00961182
-0.133935
-0.023889
-0.0766424
-0.069915
-0.14146
0.06057
-0.0606775
-0.148275
0.0180677
-0.0573884
-0.151106
0.00828801
-0.0598887
-0.147105
0.00260026
-0.0664778
-0.135998
-0.00600459
-0.119623
-0.0393498
-0.0627338
-0.0771482
-0.162525
0.0451613
-0.0632008
-0.163903
0.00713244
-0.0533085
-0.160362
-0.00228557
-0.0488676
-0.149977
-0.00743412
-0.0495902
-0.131937
-0.0148949
-0.106935
-0.0462611
-0.0428031
-0.0795939
-0.182827
0.0227367
-0.059586
-0.179959
-0.01177
-0.0427584
-0.17113
-0.0201837
-0.0307067
-0.155371
-0.0239534
-0.0240987
-0.130843
-0.0287993
-0.0960912
-0.0541341
-0.0135008
-0.078748
-0.0507778
-0.177444
-0.0508378
-0.0763966
-0.170093
-0.026524
-0.0814914
-0.157226
-0.00540732
-0.0816893
-0.139105
0.0118384
-0.0795763
-0.112592
-0.0874036
0.029731
-0.0737696
-0.0569155
-0.00550121
-0.0612366
-0.0511214
-0.07828
-0.0744892
-0.103216
-0.08357
-0.136869
-0.0816853
-0.0801173
-0.196176
-0.10726
-0.0303772
-0.0867209
-0.038606
-0.0873063
-0.049503
-0.0998035
-0.0521499
-0.124451
-0.0474258
-0.0444815
-0.183976
-0.123218
-0.0502916
-0.0971627
-0.0465935
-0.0899673
-0.0484104
-0.0950786
-0.0444383
-0.114463
-0.0340462
-0.0239926
-0.174302
-0.127462
-0.0764527
-0.0988435
-0.0680791
-0.0858943
-0.0636452
-0.0844587
-0.053308
-0.0979124
-0.0354875
-0.0140291
-0.154137
-0.127909
-0.124161
-0.0947073
-0.113051
-0.0754263
-0.10311
-0.0662098
-0.0864779
-0.070591
-0.0599056
-0.0217806
-0.116974
-0.126679
-0.263912
-0.0851779
-0.230949
-0.0583226
-0.211457
-0.0379605
-0.188529
-0.0254516
-0.151991
-0.044443
-0.0901928
0.451248
-0.10542
-0.0256428
0.486729
-0.0899457
-0.0258646
0.512283
-0.0725537
-0.0178928
0.52991
-0.05678
-0.0111989
0.542322
-0.0438824
-0.00646611
0.551682
-0.0340009
-0.00314346
-0.0268328
-0.000500597
0.466741
-0.100735
-0.0492789
0.504135
-0.0852523
-0.0420875
0.528194
-0.0692444
-0.0273681
0.54298
-0.055181
-0.0163853
0.552361
-0.0440816
-0.00918192
0.558979
-0.0361366
-0.00448157
-0.0311989
-0.00104266
0.482076
-0.0882548
-0.0604824
0.520023
-0.072492
-0.0507073
0.542272
-0.0585757
-0.0329174
0.554161
-0.04742
-0.0196505
0.560397
-0.0393237
-0.0109933
0.563985
-0.0342873
-0.005438
-0.0322425
-0.00151889
0.497749
-0.0716154
-0.0644775
0.533884
-0.0549738
-0.0536528
0.553436
-0.0431972
-0.034931
0.562295
-0.0353565
-0.0209224
0.565466
-0.0307362
-0.0117588
0.566038
-0.0289516
-0.00590745
-0.0299006
-0.00186887
0.514469
-0.0508865
-0.0643609
0.54579
-0.0338219
-0.0524726
0.561366
-0.0247
-0.0340735
0.566958
-0.020502
-0.020446
0.567252
-0.0194796
-0.0115508
0.56505
-0.0208516
-0.00589791
-0.0244426
-0.00207276
0.531978
-0.0625453
-0.0230214
0.555311
-0.0481677
-0.00898694
0.565762
-0.0309128
-0.00423876
0.568042
-0.0185341
-0.00424793
0.565863
-0.0105271
-0.00677329
0.561389
-0.00547284
-0.010905
-0.002128
-0.0164641
-0.0202038
-0.144006
-0.0873513
0.0303132
-0.12011
-0.0690205
0.0605456
-0.0937029
-0.0407262
0.079744
-0.0712633
-0.0234988
0.0930135
-0.0538511
-0.0130328
0.103342
-0.0409911
-0.00628672
-0.0318559
-0.00119404
0.00400902
-0.128116
-0.14582
0.0567234
-0.108133
-0.106778
0.0833161
-0.0863858
-0.0612779
0.0975253
-0.0676723
-0.0341855
0.106177
-0.0532609
-0.0184242
0.112709
-0.0431359
-0.00886808
-0.0368975
-0.00220644
0.0242827
-0.106692
-0.168923
0.0781491
-0.0878432
-0.124864
0.102016
-0.0705574
-0.0726127
0.112073
-0.0567066
-0.040673
0.116457
-0.0467066
-0.0219319
0.119064
-0.0405124
-0.0106685
-0.0379976
-0.00306069
0.0437838
-0.0833801
-0.174376
0.0953546
-0.0633698
-0.129697
0.115846
-0.049778
-0.0762019
0.122114
-0.0409003
-0.0429964
0.122696
-0.0357238
-0.023324
0.121588
-0.0338131
-0.0114985
-0.0351193
-0.00365133
0.0648532
-0.0575874
-0.168508
0.10931
-0.0356692
-0.12463
0.124862
-0.0259136
-0.0734901
0.127335
-0.0221324
-0.0416862
0.124592
-0.0217714
-0.0227608
0.12021
-0.0239436
-0.0113848
-0.0285971
-0.00395393
0.0887903
-0.155017
-0.024175
0.120077
-0.110917
-0.00420688
0.128988
-0.0654825
-0.000255247
0.127766
-0.0373439
-0.0021005
0.122369
-0.0205565
-0.00634461
0.11543
-0.0104607
-0.0120165
-0.00397672
-0.0191308
-0.0344045
-0.193823
-0.288338
0.0163295
-0.157984
-0.12832
0.0377785
-0.114865
-0.0598203
0.050692
-0.0825173
-0.0311664
0.0603083
-0.05971
-0.0164945
0.0690465
-0.0439448
-0.0079656
-0.033166
-0.00194724
0.0106398
-0.145446
-0.388814
0.0597602
-0.127472
-0.18641
0.0709172
-0.0987785
-0.0885211
0.0742043
-0.0748903
-0.0450996
0.0765728
-0.0573032
-0.0231996
0.0801706
-0.0453552
-0.0110555
-0.0381066
-0.00309895
0.0360109
-0.105871
-0.41881
0.0878793
-0.0935531
-0.210651
0.0946987
-0.0750303
-0.10318
0.0919781
-0.0596685
-0.0531741
0.0887395
-0.0485839
-0.0274126
0.0875826
-0.0417446
-0.0131222
-0.038959
-0.0039872
0.0560916
-0.0712939
-0.419182
0.106513
-0.0588424
-0.214829
0.109945
-0.0476645
-0.107
0.103069
-0.04004
-0.0557487
0.095618
-0.0355275
-0.0289293
0.0903735
-0.0340336
-0.013965
-0.0357641
-0.00451294
0.0762579
-0.0375011
-0.395532
0.118617
-0.0225591
-0.203272
0.117693
-0.0182928
-0.101937
0.107568
-0.018047
-0.0535544
0.0970538
-0.0197907
-0.0279835
0.0885334
-0.0232539
-0.0136441
-0.028895
-0.00468193
0.0999218
0.00128186
-0.338165
0.124775
0.0165726
-0.174902
0.11828
0.0116399
-0.0889206
0.105797
0.00438479
-0.047292
0.0934618
-0.00303864
-0.0249738
0.0826992
-0.0106086
-0.0123434
-0.0190602
-0.00453341
0.53887
-0.0142185
-9.76425e-05
0.526819
-0.0224013
0.00152343
0.510632
-0.0315753
0.00302487
0.488539
-0.0414711
0.00409994
0.459265
-0.0510002
0.00325911
0.424664
-0.0576014
-0.00393826
-0.0565891
-0.0301699
0.398639
0.530611
-0.00355486
-0.000450668
0.517603
-0.00982042
0.000427186
0.500781
-0.0155604
0.000807392
0.479246
-0.0200869
0.000150629
0.453222
-0.0219367
-0.00303914
0.426337
-0.0186803
-0.0120363
-0.00744068
-0.0331426
0.410331
0.524345
0.00686437
-0.000570735
0.511938
0.00273336
-0.000147692
0.496463
0.000183142
-0.000267668
0.477803
-5.70801e-05
-0.00136999
0.457078
0.00322336
-0.00443556
0.438038
0.0115552
-0.0111952
0.0259203
-0.0239419
0.428619
0.520248
0.0159384
-0.000521778
0.509495
0.0138256
-0.00033894
0.496427
0.0138458
-0.000594941
0.481387
0.0165556
-0.00157251
0.465726
0.0227009
-0.00381669
0.452468
0.0329391
-0.00812593
0.0471238
-0.0152036
0.446468
0.518161
0.0230117
-0.000384284
0.509598
0.0226936
-0.000305179
0.499274
0.0246944
-0.000524606
0.487692
0.0293377
-0.00120012
0.476062
0.0369391
-0.00260772
0.466546
0.0475388
-0.00508442
0.0604599
-0.0087974
0.462007
0.517812
0.0278368
-0.000224448
0.511634
0.0290335
-0.000162061
0.503986
0.0326051
-0.000262466
0.495347
0.0385887
-0.000611865
0.486641
0.0469821
-0.00133713
0.479313
0.0574391
-0.00257298
0.069062
-0.00434326
0.475055
0.51906
7.50847e-05
0.515229
7.16567e-05
0.510006
0.000111013
0.503733
8.80305e-05
0.497023
-7.83849e-05
0.49078
-0.000437023
-0.00100111
0.486023
0.0872649
-0.0169597
-2.27205e-05
0.0729648
-0.0272473
0.00314218
0.0534247
-0.0390705
0.00624653
0.0252976
-0.0523581
0.00883729
-0.0157693
-0.0659046
0.00800163
-0.0726023
-0.0758343
-0.00656625
-0.0723951
-0.0766581
-0.12296
0.0768411
-0.0042966
-0.000671713
0.0610562
-0.0120796
0.00104441
0.0402203
-0.0193158
0.00188864
0.0123289
-0.0251336
0.00081743
-0.0238953
-0.0273881
-0.00533138
-0.0656207
-0.0219122
-0.0242329
-0.00198769
-0.0750957
-0.094075
0.069058
0.00802898
-0.000905008
0.0539589
0.00294896
-7.72484e-05
0.034812
-0.000194734
-0.000241808
0.0109708
-0.000407588
-0.00225477
-0.0168505
0.00414036
-0.00814273
-0.0443017
0.0161425
-0.0217987
0.038308
-0.0495528
-0.0589864
0.0640378
0.0187197
-0.000839404
0.0510009
0.0161301
-0.000483132
0.0349711
0.0161769
-0.000936784
0.0161121
0.0196252
-0.0027462
-0.00417151
0.0276169
-0.00700969
-0.0220957
0.0413963
-0.0154556
0.06136
-0.0299562
-0.0303952
0.0615085
0.027015
-0.00061548
0.0511911
0.0266124
-0.00047005
0.0386551
0.0290607
-0.000872369
0.0243907
0.0348175
-0.0021281
0.00978528
0.044394
-0.00477934
-0.0024253
0.0580535
-0.00953099
0.0751649
-0.0168428
-0.00818478
0.0611216
0.03256
-0.000327259
0.053717
0.0340964
-0.000241443
0.044525
0.0384322
-0.000441962
0.0340568
0.0457688
-0.00109498
0.023402
0.0561633
-0.0024517
0.014366
0.0693024
-0.00478593
0.0841541
-0.00818218
0.00921565
0.0626207
4.97548e-05
0.0580896
0.000134472
0.0518992
0.000206323
0.044433
0.000150565
0.0364103
-0.000151547
0.0289305
-0.00080795
-0.00185504
0.0232845
0.0507189
-0.0177781
0.000300503
0.0361109
-0.0296254
0.0041703
0.0155616
-0.0438556
0.00831408
-0.0172829
-0.0610398
0.012603
-0.0757018
-0.080381
0.0144723
-0.186581
-0.0967202
0.00188757
-0.0781867
-0.351341
-0.126395
0.0386676
-0.00458683
-0.000397453
0.0217282
-0.0133603
0.00171867
-0.00151077
-0.0217372
0.00300916
-0.0354067
-0.0287035
0.00237707
-0.086021
-0.0310916
-0.00400652
-0.158657
-0.0212616
-0.0270552
0.020321
-0.22674
-0.10552
0.0298934
0.00815826
-0.00066474
0.0135591
0.00253503
0.000361714
-0.00779726
-0.000967553
0.000344872
-0.0360467
-0.00104557
-0.00166328
-0.0722419
0.0050765
-0.00811563
-0.113307
0.0223619
-0.0243568
0.058508
-0.139822
-0.0612246
0.0243504
0.0191192
-0.000629531
0.0103172
0.0162786
-0.00019347
-0.00731588
0.0163609
-0.000632104
-0.0289347
0.0203838
-0.00255673
-0.053669
0.0300816
-0.00728056
-0.0775045
0.0478161
-0.0170742
0.0756068
-0.0895584
-0.0350011
0.0215932
0.0275705
-0.00044639
0.0105931
0.0270928
-0.000284141
-0.00296357
0.0297633
-0.000718082
-0.018808
0.0361898
-0.00208968
-0.0356617
0.0471963
-0.00504047
-0.0504215
0.0635225
-0.0104776
0.0849718
-0.057443
-0.0191863
0.0211691
0.0332061
-0.00021456
0.0133726
0.0347844
-0.000136588
0.00361316
0.039456
-0.000375199
-0.00767696
0.0474861
-0.00110117
-0.0194073
0.0590828
-0.00260781
-0.029542
0.0741166
-0.00524533
0.0916119
-0.035172
-0.00919221
0.0227621
5.52275e-05
0.0180895
0.000162363
0.011682
0.000220002
0.00389242
0.000154725
-0.00455822
-0.000155719
-0.0124834
-0.000850073
-0.0183734
-0.00199973
0.414478
-0.0447202
-0.0898114
0.435511
-0.0352738
-0.100053
0.457279
-0.0263549
-0.100592
0.479728
-0.0166491
-0.0978524
0.502301
-0.00590643
-0.0905289
0.00548577
-0.0775816
0.524549
0.42414
0.0111314
-0.0696608
0.44453
0.0243406
-0.0800041
0.466976
0.0337803
-0.0825809
0.490349
0.0406401
-0.0806624
0.51331
0.0451105
-0.0739779
0.0469234
-0.0620319
0.533904
0.437627
0.0441637
-0.0420405
0.45412
0.0581653
-0.0503177
0.473775
0.0674597
-0.0533341
0.494574
0.0724284
-0.0525872
0.514694
0.0732758
-0.0482861
0.070192
-0.0405771
0.532003
0.451707
0.0629882
-0.0240633
0.463514
0.0757123
-0.0293533
0.478729
0.0839195
-0.0316756
0.495303
0.0873816
-0.0315269
0.511433
0.086246
-0.0290996
0.0809859
-0.0246589
0.525298
0.464358
0.073757
-0.013119
0.471736
0.0844487
-0.0161142
0.482197
0.091061
-0.0176031
0.494153
0.0931003
-0.0176745
0.506161
0.09067
-0.0164317
0.0843713
-0.0140768
0.516852
0.474922
0.0802267
-0.00633691
0.478312
0.0889062
-0.00784817
0.484246
0.0938036
-0.00867665
0.491763
0.0943883
-0.00880464
0.499933
0.090775
-0.00827492
0.083647
-0.00719642
0.507854
0.483471
-0.00166725
0.483159
-0.00221774
0.484846
-0.00257054
0.488219
-0.00271579
0.492917
-0.00266738
-0.0024511
0.498496
-0.0742992
-0.0407167
-0.2752
-0.037574
-0.0288872
-0.277983
-0.00742333
-0.0190735
-0.268895
0.0232203
-0.00802347
-0.259577
0.0543744
0.00456229
-0.238838
0.0182347
-0.19925
0.0840386
-0.0604607
0.0355236
-0.179515
-0.0280109
0.0530816
-0.194423
0.00330822
0.0640318
-0.197005
0.035282
0.0711691
-0.191829
0.0668177
0.0745309
-0.175482
0.0734299
-0.144765
0.0943556
-0.0410859
0.0685313
-0.0929486
-0.0166085
0.0877493
-0.109463
0.0102347
0.0992715
-0.115417
0.0380235
0.104527
-0.113734
0.0647037
0.103796
-0.104231
0.0972012
-0.086652