/*--------------------------------*- C++ -*----------------------------------*\
  =========                 |
  \\      /  F ield         | OpenFOAM: The Open Source CFD Toolbox
   \\    /   O peration     | Website:  https://openfoam.org
    \\  /    A nd           | Version:  7
     \\/     M anipulation  |
\*---------------------------------------------------------------------------*/
FoamFile
{
    version     2.0;
    format      ascii;
    class       surfaceScalarField;
    location    "0.25";
    object      phi;
}
// * * * * * * * * * * * * * * * * * * * * * * * * * * * * * * * * * * * * * //

dimensions      [0 3 -1 0 0 0 0];

internalField   nonuniform List<scalar> 
22044
(
1.51453
0.00216532
-0.0012288
1.5138
0.00246096
-0.00122579
1.51261
0.0029855
-0.00119828
1.51084
0.00364324
-0.00114555
1.50846
0.00429356
-0.00106157
1.50562
0.00472686
-0.000950722
0.00472083
-0.000830147
1.50267
1.51484
0.00366345
-0.00121617
1.51429
0.00420577
-0.00119178
1.51321
0.00518949
-0.00113091
1.51143
0.00645683
-0.00102844
1.50885
0.00775455
-0.000879041
1.50561
0.00866735
-0.000706003
0.00870033
-0.000570168
1.5022
1.51542
0.00470205
-0.00121732
1.51526
0.00551595
-0.00115524
1.51445
0.0070232
-0.00102634
1.51268
0.00904111
-0.000810968
1.50971
0.0112246
-0.000498978
1.50564
0.0128951
-0.000152971
0.013079
4.001e-05
1.50122
1.51628
0.00504224
-0.00120991
1.51676
0.00611328
-0.00107721
1.51644
0.00815647
-0.00080846
1.51479
0.0110333
-0.000344277
1.51128
0.014381
0.000356456
1.50577
0.017235
0.00116511
0.0178108
0.00155929
1.49948
1.51743
0.00441279
-0.00115957
1.51881
0.0056305
-0.000901564
1.51929
0.00804364
-0.000363875
1.51805
0.0116625
0.00061646
1.51395
0.0162746
0.0021976
1.50622
0.0207711
0.00419379
0.0222027
0.00526424
1.49657
1.51876
0.00260588
-0.00104598
1.52128
0.00369865
-0.000591115
1.52295
0.00596732
0.000408063
1.52261
0.00964134
0.00235705
1.51823
0.0148854
0.00577518
1.5074
0.0209409
0.0106564
0.0238099
0.0139701
1.49182
1.51997
-0.000885061
-0.000341308
1.52365
-0.000180558
0.000198529
1.52677
0.00146986
0.00137775
1.52799
0.00496636
0.00345811
1.52419
0.0118176
0.00686507
1.50996
0.0234741
0.011698
0.0343921
1.48461
0.0147626
0.132439
0.00255737
-0.00261583
0.13159
0.00291594
-0.00259852
0.130218
0.00356499
-0.00255034
0.128169
0.00439387
-0.00245869
0.125406
0.00523406
-0.00230688
0.12209
0.00581751
-0.00209499
0.00583091
-0.00184484
0.118634
0.13282
0.00428475
-0.00264385
0.1322
0.00494908
-0.00260526
0.130982
0.00617097
-0.0025192
0.128933
0.00778051
-0.00236603
0.12593
0.00948446
-0.00212565
0.122111
0.0107525
-0.00182247
0.0108609
-0.00154623
0.118057
0.133535
0.00551385
-0.00269285
0.13341
0.00652891
-0.00261026
0.132549
0.0084388
-0.00243287
0.130559
0.0110735
-0.00211435
0.127104
0.0140609
-0.00161948
0.122194
0.0165347
-0.00102591
0.0169816
-0.000639528
0.116753
0.134626
0.005952
-0.00272699
0.13531
0.00732119
-0.00255386
0.135122
0.00998762
-0.00216934
0.133404
0.0139006
-0.00145295
0.129354
0.0187601
-0.000292215
0.122508
0.0233812
0.00116419
0.024798
0.00199382
0.114257
0.136113
0.00526898
-0.00269209
0.137998
0.00687622
-0.00234233
0.138997
0.0101542
-0.00152882
0.138077
0.0153599
7.73141e-05
0.133545
0.0226063
0.00288286
0.123534
0.0307758
0.00681061
0.0347183
0.00931142
0.109566
0.137891
0.00318847
-0.00254552
0.141379
0.00469114
-0.00189422
0.144286
0.00794474
-0.000288665
0.145215
0.0136572
0.00313037
0.141033
0.0228463
0.00971748
0.126456
0.0356303
0.0203789
0.0450537
0.0295066
0.100584
0.139603
-0.00230013
-0.000299751
0.144864
-0.00123332
0.000482967
0.150384
0.0015911
0.00230336
0.154836
0.0082443
0.00592644
0.153492
0.0229901
0.0130187
0.133585
0.0534975
0.0255132
0.0922461
0.084229
0.036556
0.0109541
0.00255564
-0.00400271
0.0101254
0.00293596
-0.0039987
0.00878467
0.00363493
-0.00397839
0.00677386
0.00454772
-0.00391687
0.00403789
0.00550607
-0.00377735
0.000722575
0.00621034
-0.00353236
0.00625893
-0.00274112
-0.00317362
0.0113594
0.00428484
-0.00410192
0.0107833
0.00500031
-0.00409352
0.00962771
0.00633931
-0.00406794
0.00764462
0.00815711
-0.00399234
0.00466731
0.0101776
-0.00381986
0.00078009
0.0118058
-0.0035307
0.012053
-0.00340336
-0.00315682
0.0121313
0.00555018
-0.00427462
0.0121069
0.00667273
-0.00425833
0.0113894
0.00883535
-0.0042114
0.00955361
0.011952
-0.00407345
0.00614146
0.0157432
-0.00377293
0.000960816
0.0192639
-0.00330342
0.0202579
-0.005039
-0.00284469
0.0133397
0.00606649
-0.00447987
0.0142564
0.00763835
-0.00443617
0.0144229
0.010805
-0.00430554
0.013127
0.0157552
-0.00396024
0.00926451
0.0225459
-0.00323247
0.00165568
0.0301246
-0.00208764
0.0336456
-0.00858654
-0.00115157
0.0150514
0.00548613
-0.00465472
0.0174539
0.00742538
-0.00453182
0.019318
0.0115815
-0.00416944
0.0195906
0.0188037
-0.0032437
0.0159195
0.0303244
-0.00122459
0.00411796
0.0464448
0.00229195
0.058629
-0.0165869
0.00503278
0.0172111
0.00347227
-0.00473138
0.0217727
0.00540666
-0.00443711
0.026695
0.00991762
-0.00354711
0.0308773
0.018932
-0.00118022
0.0300056
0.0363827
0.00453087
0.0117747
0.069137
0.0159177
0.108236
-0.0350966
0.0267714
0.0194477
-9.23395e-05
-0.00467
0.0267105
0.00100119
-0.0040906
0.0365875
0.00384616
-0.00221442
0.0497494
0.0106843
0.00333009
0.0622034
0.0278335
0.0190852
0.0444294
0.0751285
0.06528
-0.0814817
0.168318
0.158074
1.50002
0.00420118
-0.000706982
1.49786
0.00338221
-0.000543169
1.49618
0.00249931
-0.000310806
1.49483
0.00169628
3.50164e-06
1.49359
0.00103284
0.000415664
0.00051916
0.000962398
1.49222
1.49927
0.00764677
-0.000512793
1.49704
0.0060385
-0.00042703
1.49542
0.00437011
-0.000251919
1.49419
0.00290013
2.74121e-05
1.49309
0.0017148
0.000419562
0.000814065
0.000954742
1.49184
1.49774
0.0112227
-9.51127e-05
1.49542
0.00856032
-0.000208613
1.49398
0.00597253
-0.000161275
1.49302
0.0038072
5.00456e-05
1.4922
0.00212653
0.00040821
0.000884068
0.000925213
1.49121
1.49518
0.014661
0.000865629
1.49288
0.0105972
0.000259813
1.49182
0.00699926
2.78512e-05
1.49134
0.00419008
0.000103044
1.49095
0.00211284
0.000397059
0.000625114
0.000878504
1.49034
1.49125
0.0170207
0.00295977
1.4893
0.0113433
0.00119977
1.48899
0.00691011
0.000400132
1.48923
0.00373015
0.000220961
1.48944
0.00150162
0.000398347
-4.96164e-05
0.000807999
1.48931
1.48569
0.0161186
0.00703466
1.48481
0.00940787
0.00280999
1.48573
0.00498449
0.00100641
1.48694
0.00210169
0.000419614
1.48786
0.000173595
0.000414357
-0.00115545
0.000692957
1.48827
1.47889
0.0139616
0.00788097
1.48018
0.00496821
0.0031514
1.48271
0.00176575
0.000691224
1.48493
0.000662892
-0.00078607
1.48649
0.000412517
-0.00179273
0.000469076
1.48739
-0.00253299
0.115558
0.00514541
-0.00156573
0.113087
0.0040943
-0.00119472
0.111187
0.00299284
-0.000688837
0.10969
0.00201141
-2.72004e-05
0.10837
0.00121119
0.000817291
0.000596484
0.001906
0.106976
0.114644
0.00941345
-0.00136806
0.112109
0.0073085
-0.00110553
0.110305
0.00521356
-0.000669169
0.108969
0.00341806
-4.25546e-05
0.107819
0.00199429
0.000786386
0.00092158
0.00186757
0.106581
0.112681
0.0141933
-0.00080251
0.110105
0.0105353
-0.000860324
0.108567
0.00719929
-0.000608297
0.107587
0.00451493
-6.69089e-05
0.106785
0.00247725
0.000726797
0.000984291
0.00179099
0.105857
0.109224
0.0193851
0.000707047
0.106841
0.0134001
-0.000222465
0.105892
0.00858591
-0.000409149
0.105539
0.00502708
-5.62227e-05
0.105282
0.0024714
0.000659641
0.000654489
0.001679
0.104811
0.103539
0.0240181
0.00435424
0.102054
0.0149009
0.00118345
0.102286
0.00869827
5.57233e-05
0.102933
0.00456034
4.13691e-05
0.103432
0.00176345
0.000607408
-0.000184524
0.00152029
0.103558
0.0947048
0.0249868
0.011945
0.0956918
0.0130468
0.003677
0.0979906
0.00655269
0.000853153
0.100031
0.00268289
0.000256372
0.10143
0.000188193
0.000590993
-0.00157394
0.00128401
0.102228
0.0823096
0.026368
0.0144999
0.0886105
0.00672327
0.00499086
0.0938358
0.0018466
0.00124651
0.0974026
0.000572041
-0.000793081
0.0996158
0.000574004
-0.00218644
0.000810161
0.10101
-0.00330953
-0.00576216
0.00544209
-0.00269635
-0.00812744
0.0042475
-0.00205791
-0.00989091
0.00305088
-0.0012382
-0.0112171
0.00201824
-0.000227975
-0.0122983
0.00119289
0.000998077
0.000565752
-0.0133214
0.00250397
-0.0067749
0.0101854
-0.00273982
-0.00916707
0.00768252
-0.00214838
-0.0107955
0.00535185
-0.00134174
-0.0119352
0.00343939
-0.000323986
-0.0128316
0.00196042
0.000915298
0.000857792
-0.0136874
0.00243132
-0.00908396
0.0161057
-0.00267786
-0.0113901
0.0113938
-0.00226546
-0.0126483
0.00751943
-0.00151768
-0.0133719
0.00459149
-0.000495407
-0.0138937
0.00244275
0.000766229
0.000882229
-0.0144257
0.00229862
-0.0134709
0.0237538
-0.00205668
-0.0151761
0.0151281
-0.00225159
-0.0155729
0.00920916
-0.00170211
-0.0155365
0.00520368
-0.000704805
-0.0154642
0.00245303
0.000577074
0.000497594
-0.015515
0.00211445
-0.0215352
0.0327532
0.000303139
-0.0210945
0.017731
-0.0018602
-0.0196598
0.00965653
-0.00182628
-0.0183561
0.00485133
-0.000909977
-0.017453
0.00177386
0.000383472
-0.000429345
-0.016883
0.00187721
-0.0359169
0.0395384
0.00598016
-0.0295805
0.0161408
-0.00106918
-0.024712
0.00757488
-0.00193368
-0.021562
0.00303864
-0.00108097
-0.0196945
0.000241329
0.000256079
-0.00195153
-0.0184838
0.00159545
-0.0573907
0.0259722
0.0158431
-0.0387472
0.00593464
-0.00171418
-0.0291017
0.00200378
-0.00222774
-0.0240345
-0.000375938
-0.00108056
-0.0214697
-0.00216424
0.000414724
-0.0200412
-0.0039416
0.00137172
1.49038
0.000143494
0.00172435
1.4876
-0.000115735
0.00287054
1.48307
-0.000291568
0.00476588
1.4752
-0.000429797
0.00822114
1.46027
-0.000525623
0.0153454
1.42689
-0.000511976
0.0337124
-0.00218758
0.0841446
1.4901
0.000167733
0.00171074
1.4874
-0.000263893
0.0028569
1.48288
-0.000536688
0.00475696
1.47494
-0.000711893
0.00822579
1.45994
-0.000842476
0.015318
1.42697
-0.00100975
0.0334716
-0.00144295
0.0838831
1.48969
1.57981e-05
0.00167179
1.48714
-0.000535973
0.00281978
1.48273
-0.000856585
0.00473014
1.47484
-0.00103436
0.00821627
1.45981
-0.00114409
0.0153331
1.42653
-0.00125152
0.0335137
-0.00139753
0.0842104
1.48913
-0.000383566
0.00160355
1.48682
-0.00097613
0.00275524
1.48255
-0.00127634
0.00468344
1.47473
-0.00140648
0.00819211
1.45971
-0.00145847
0.0153336
1.42641
-0.00149349
0.0335464
-0.00153186
0.0842887
1.48852
-0.00107189
0.00147871
1.4865
-0.0015926
0.00263727
1.48241
-0.00178589
0.00459838
1.47467
-0.00181211
0.00814195
1.45968
-0.00177634
0.0153133
1.42637
-0.00173839
0.0335519
-0.00171881
0.0843143
1.48797
-0.00201545
0.00123782
1.48629
-0.00232601
0.00242225
1.48237
-0.00232412
0.0044524
1.4747
-0.00220077
0.00805639
1.45972
-0.00205933
0.0152705
1.42639
-0.00194964
0.033537
-0.00188919
0.0843151
1.48764
0.000749708
-0.00300988
1.48627
0.00204066
-0.00299815
1.48249
0.00422176
-0.0027629
1.47484
0.00793093
-0.00248822
1.45983
0.0152082
-0.00225253
1.42645
0.0335103
-0.00208586
0.0843053
-0.00199701
0.105223
0.00015048
0.00336478
0.102781
-0.000150665
0.00543186
0.0992683
-0.000342912
0.00854661
0.0943261
-0.000463975
0.0135215
0.0881236
-0.000521507
0.0219381
0.0849948
-0.000516811
0.037175
-0.00112103
0.0604364
0.104962
0.000156798
0.00332272
0.102622
-0.000343975
0.00539097
0.0991764
-0.000648808
0.00850813
0.0942873
-0.000829861
0.0134808
0.0881772
-0.000947772
0.0218544
0.0851567
-0.00107437
0.0370496
-0.00134892
0.0608672
0.104503
-5.49176e-05
0.00323718
0.102362
-0.000696469
0.00531313
0.0990483
-0.00105262
0.00844795
0.0942313
-0.0012369
0.0134404
0.0881264
-0.00133866
0.0218288
0.0849732
-0.00142799
0.0370205
-0.00153973
0.0609778
0.10385
-0.000581931
0.0030915
0.101996
-0.00126729
0.00518067
0.0988588
-0.00158429
0.00835218
0.0941305
-0.00170124
0.0133847
0.0880484
-0.00173266
0.0218097
0.08488
-0.00174995
0.0370368
-0.00177467
0.06103
0.103135
-0.00150287
0.00282312
0.101651
-0.00208306
0.00493664
0.0987231
-0.00223904
0.00818128
0.0940891
-0.00220934
0.013284
0.0880316
-0.00212564
0.0217638
0.0848576
-0.00205603
0.037032
-0.00202144
0.0610531
0.102507
-0.00281829
0.00227443
0.101458
-0.00308461
0.00447264
0.0987328
-0.00294301
0.00788183
0.0941644
-0.00269905
0.0131145
0.0881027
-0.00247334
0.0216799
0.0848965
-0.00231337
0.0370006
-0.00223064
0.0610486
0.10217
0.000979689
-0.00420808
0.101563
0.00356202
-0.0039986
0.0989649
0.00738179
-0.00350517
0.0943885
0.0128596
-0.00305129
0.0882679
0.0215591
-0.00270367
0.0849884
0.0369503
-0.00247387
0.06103
-0.00235754
-0.0144544
0.000115305
0.00441381
-0.0158183
-0.000179733
0.0069381
-0.0173994
-0.000357268
0.0104067
-0.018831
-0.000458023
0.0153075
-0.0188256
-0.000512715
0.0223222
-0.0133769
-0.00060255
0.0321715
-0.000999418
0.0427505
-0.0146729
7.63043e-05
0.00434724
-0.0159214
-0.000418337
0.00687805
-0.0174198
-0.000702234
0.0103515
-0.0187925
-0.000856349
0.0152518
-0.0187523
-0.000948311
0.0222498
-0.0133943
-0.00104656
0.0321355
-0.00121552
0.0430756
-0.0151277
-0.000207161
0.00422264
-0.0161642
-0.00084113
0.0067724
-0.017528
-0.00116088
0.0102704
-0.0188337
-0.00130336
0.015193
-0.018794
-0.0013663
0.0222072
-0.0135059
-0.00141677
0.0321026
-0.00148095
0.0431249
-0.0157765
-0.0008747
0.00402055
-0.0164996
-0.00153866
0.00660131
-0.01768
-0.00177936
0.010151
-0.0188992
-0.00182302
0.0151236
-0.0188377
-0.00179755
0.0221794
-0.0135567
-0.00177223
0.0321113
-0.00176956
0.0431618
-0.0164827
-0.00211169
0.00365981
-0.0167796
-0.00259472
0.00628955
-0.0177476
-0.00257237
0.00994231
-0.0188855
-0.00240566
0.0150046
-0.0188131
-0.00223237
0.0221261
-0.0135491
-0.00210811
0.0321039
-0.00204776
0.0431824
-0.0170643
-0.00414231
0.00288555
-0.016823
-0.00403241
0.0056691
-0.0176078
-0.00347454
0.00956882
-0.0187214
-0.00298172
0.0148042
-0.0186871
-0.00261889
0.0220321
-0.0134799
-0.00238658
0.0320719
-0.00227364
0.0431811
-0.0170276
-0.0067117
0.000535475
-0.0163341
-0.00544526
0.00428141
-0.0171232
-0.00420204
0.0088984
-0.0183547
-0.00338331
0.0144926
-0.018446
-0.00286348
0.021895
-0.0133516
-0.00255168
0.0320211
-0.00240326
0.0431682
1.52058
-0.00391343
-0.000759345
1.52492
-0.00425941
0.000121624
1.52904
-0.00503963
0.00230016
1.53171
-0.00651991
0.0073027
1.5293
-0.00914634
0.0184275
1.51299
-0.0131979
0.0411998
-0.0161445
0.066067
1.47783
1.52019
-0.00714706
-0.000774317
1.52406
-0.00811539
-1.53705e-05
1.52739
-0.0101361
0.00176736
1.52879
-0.0134737
0.00555717
1.52496
-0.0183516
0.0130346
1.51003
-0.0241553
0.0258856
-0.0270945
0.0378392
1.48314
1.51911
-0.00944245
-0.000844329
1.52193
-0.0106274
-0.000308447
1.5239
-0.0129769
0.000876444
1.52376
-0.016541
0.0032043
1.51921
-0.0211485
0.00734176
1.50738
-0.0257298
0.0134066
-0.027252
0.0176066
1.48993
1.51782
-0.0106598
-0.000887957
1.51952
-0.0117789
-0.000547355
1.52028
-0.0139098
0.000170615
1.51918
-0.0169366
0.00149608
1.51485
-0.0204986
0.00368204
1.50613
-0.0235843
0.00657652
-0.0242184
0.00823366
1.49486
1.51662
-0.0109256
-0.000880217
1.51737
-0.0118475
-0.000677823
1.51727
-0.0135474
-0.000262782
1.51571
-0.0158417
0.000468302
1.51195
-0.0183526
0.0016119
1.50564
-0.0203105
0.00303925
-0.0205332
0.00380584
1.49815
1.51565
-0.000829077
-0.0104614
1.51567
-0.000716663
-0.011155
1.51501
-0.00048587
-0.0124003
1.51328
-9.48832e-05
-0.0140128
1.51011
0.000488667
-0.015675
1.50548
0.00118028
-0.0168588
0.00151262
1.50031
-0.0168767
0.140527
-0.00460381
-0.00208315
0.146927
-0.00510238
-0.000693323
0.154625
-0.00633073
0.00323616
0.163327
-0.00899146
0.0135185
0.168567
-0.0146421
0.040849
0.146318
-0.0252939
0.114255
-0.0354045
0.218246
0.0660995
0.139917
-0.00844479
-0.00208018
0.145479
-0.00976775
-0.000911676
0.151403
-0.0126723
0.00218475
0.15636
-0.0178992
0.00950814
0.155365
-0.0265373
0.0259245
0.134469
-0.0389444
0.0604324
-0.0483659
0.103928
0.0813419
0.138396
-0.0111165
-0.0021421
0.142336
-0.0126734
-0.00134213
0.145777
-0.0158727
0.000635366
0.147237
-0.0210361
0.00488139
0.14315
-0.0283592
0.0132511
0.126963
-0.0368294
0.0274781
-0.0410316
0.0403307
0.0969048
0.136662
-0.0124995
-0.002143
0.139011
-0.013926
-0.00164363
0.140503
-0.0167197
-0.00047484
0.139979
-0.0208792
0.00186337
0.135337
-0.0261356
0.00610092
0.12378
-0.0312725
0.0125764
-0.0329077
0.01744
0.10645
0.135102
-0.0127715
-0.00205324
0.136172
-0.0139191
-0.00175483
0.136364
-0.01609
-0.00108412
0.134897
-0.0191347
0.00019118
0.130656
-0.0226661
0.00238241
0.122579
-0.0257245
0.00556878
-0.0263986
0.00793909
0.111937
0.133858
-0.00189398
-0.012202
0.133992
-0.00172118
-0.0130486
0.133372
-0.00134542
-0.0146102
0.131509
-0.000662115
-0.0167044
0.127854
0.000461683
-0.0189838
0.122075
0.00204286
-0.0208082
0.00318527
0.115132
-0.0211283
0.0207805
-0.00464819
-0.00451641
0.0301077
-0.00534894
-0.00367043
0.0452156
-0.00733237
-0.000693139
0.072903
-0.0125621
0.00907743
0.124551
-0.0267116
0.0437465
0.17372
-0.0684907
0.208705
-0.153871
-0.161772
0.875927
0.0198835
-0.0086041
-0.00439661
0.0276327
-0.0103017
-0.00370813
0.0383557
-0.0143532
-0.00151739
0.0530795
-0.022697
0.00491921
0.0684969
-0.0393943
0.0231898
0.0555926
-0.0716819
0.0765279
-0.110298
-0.0819871
0.197935
0.017892
-0.0112528
-0.00421797
0.0231437
-0.0131311
-0.00376439
0.0290941
-0.0172182
-0.00244995
0.0347884
-0.0244765
0.00096654
0.0357308
-0.0363803
0.00929472
0.0180278
-0.0536158
0.027115
-0.0663678
-0.0397854
0.0542134
0.0157763
-0.0125622
-0.00393349
0.0188587
-0.0142076
-0.00364953
0.0216182
-0.0175698
-0.00288269
0.0229899
-0.0229394
-0.00104539
0.0202207
-0.0305281
0.00301793
0.00758262
-0.0394019
0.0110006
-0.0433935
-0.0208944
0.0229427
0.0139621
-0.0127649
-0.00356469
0.0154321
-0.0140476
-0.00338486
0.0162657
-0.0165611
-0.00292637
0.0156892
-0.0202866
-0.00188518
0.0122653
-0.0250301
0.000308218
0.00378794
-0.0298596
0.00450386
-0.0314207
-0.0116565
0.0114108
0.0125594
-0.012148
-0.00315623
0.0129045
-0.0130732
-0.0030407
0.0126011
-0.0148386
-0.00276457
0.0111499
-0.0173274
-0.00217015
0.00785932
-0.0203085
-0.000969345
0.00196361
-0.0232303
0.00130931
-0.00719824
-0.0245183
0.00544471
1.47381
-0.0108076
0.0227112
1.47745
-0.0070696
0.00658283
1.48111
-0.00524906
0.00227602
1.48387
-0.00435444
0.000810216
1.48572
-0.00393729
0.000292946
-0.00376152
3.53658e-05
1.48692
1.47788
-0.0198524
0.0143061
1.47951
-0.0136795
0.00497856
1.48211
-0.00972432
0.00187515
1.48433
-0.007246
0.000669544
1.48592
-0.00568794
0.000160659
-0.00468171
-0.000211787
1.48705
1.48415
-0.0218736
0.00780707
1.48366
-0.0162857
0.00308966
1.48472
-0.0120036
0.00122608
1.48596
-0.00892576
0.000433738
1.48697
-0.00674279
4.81893e-05
-0.0051773
-0.000312724
1.48778
1.48964
-0.0206599
0.00401051
1.48801
-0.0163436
0.00168776
1.48787
-0.0125396
0.000674623
1.4882
-0.00947564
0.000216732
1.48857
-0.00708101
-3.14377e-05
-0.00522405
-0.000315949
1.48894
1.49383
-0.0182173
0.00187345
1.4918
-0.0150585
0.000743339
1.49096
-0.0119366
0.000238817
1.49063
-0.00916571
2.13433e-05
1.49045
-0.00681678
-8.85146e-05
-0.00487682
-0.000242346
1.49035
1.49689
0.000514297
-0.0153136
1.49489
-4.38463e-05
-0.0130152
1.49373
-0.000233711
-0.0105445
1.49299
-0.000239353
-0.00818592
1.49241
-0.000166107
-0.00606408
-9.58836e-05
1.49186
-0.00423424
0.0719088
-0.0173894
0.0487911
0.0845246
-0.00942954
0.00838739
0.0918417
-0.0064318
0.00263725
0.0961536
-0.00517546
0.000880695
0.098671
-0.00469167
0.000280757
-0.0045957
-0.000352911
0.100345
0.08143
-0.0285704
0.0253991
0.0882527
-0.0176227
0.00634907
0.0933506
-0.0118883
0.00223363
0.09673
-0.00862566
0.000740373
0.0988196
-0.00670601
8.54319e-05
-0.00553425
-0.000825586
0.100372
0.0927276
-0.0291395
0.0125533
0.0945268
-0.0203041
0.00397186
0.0968779
-0.0144763
0.00146302
0.0987797
-0.0105687
0.000474942
0.100065
-0.0078995
-4.33038e-05
-0.00601304
-0.000963268
0.101194
0.101328
-0.0261998
0.00619265
0.100522
-0.0199496
0.00213917
0.100926
-0.0149994
0.000793553
0.101543
-0.0111922
0.000223999
0.102011
-0.00827069
-0.000128403
-0.00599074
-0.000930465
0.102603
0.107315
-0.0225348
0.0028303
0.105474
-0.0182559
0.000890092
0.104781
-0.0143024
0.000234607
0.104512
-0.0108737
-2.82087e-05
0.104324
-0.00797108
-0.000199993
-0.00551732
-0.000774429
0.104383
0.1114
0.000517958
-0.0188066
0.109382
-0.000446033
-0.0158359
0.108215
-0.00063326
-0.0127356
0.107438
-0.000554765
-0.00978122
0.106793
-0.000405408
-0.00708735
-0.000512172
0.106366
-0.00467342
-0.0611846
-0.0258236
-0.0377067
-0.00915584
-0.0271486
-0.00591709
-0.0220446
-0.00459921
-0.0197092
-0.00421892
-0.00440214
-0.0196016
-0.0470161
-0.0353955
-0.0324593
-0.0173636
-0.0251787
-0.010964
-0.0213485
-0.00768905
-0.0195726
-0.00590934
-0.00494722
-0.0198531
-0.0310883
-0.0315393
-0.0252083
-0.0192717
-0.0215826
-0.0131267
-0.0194379
-0.00935883
-0.0184908
-0.0068997
-0.00520265
-0.0191987
-0.0201127
-0.0261284
-0.0188109
-0.0184343
-0.0176601
-0.013484
-0.0168923
-0.00990255
-0.0167124
-0.00720802
-0.0050659
-0.0177796
-0.0131974
-0.0217572
-0.013835
-0.0169066
-0.0140298
-0.0130546
-0.0141577
-0.0098029
-0.0145337
-0.00703197
-0.00455774
-0.0158163
-0.00895209
-0.0194854
-0.0101189
-0.0161859
-0.0108708
-0.012936
-0.0114697
-0.00975876
-0.0121649
-0.00674222
-0.0134759
-0.0037589
1.48763
-0.0036448
-8.11836e-05
1.4865
-0.00333502
0.00147341
1.48276
-0.00294873
0.00392179
1.47508
-0.0025916
0.00778293
1.46
-0.00230951
0.0151391
1.42655
-0.00211672
0.033481
-0.00201548
0.084294
1.48794
-0.00398427
-0.000545179
1.48688
-0.003401
0.00112543
1.48312
-0.00290959
0.00372119
1.47537
-0.00251901
0.00767956
1.4602
-0.00223067
0.0150911
1.42666
-0.00203959
0.0334624
-0.00194036
0.084289
1.48853
-0.00404325
-0.000691621
1.48737
-0.00325116
0.00100658
1.48351
-0.00269706
0.00364879
1.47566
-0.00230839
0.00764339
1.46039
-0.00204187
0.0150776
1.42676
-0.00187201
0.0334617
-0.00178498
0.0842951
1.48934
-0.00382431
-0.000620721
1.48794
-0.00292023
0.00106931
1.48391
-0.0023582
0.00369206
1.47593
-0.0020039
0.00767369
1.46056
-0.00177889
0.0151005
1.42685
-0.00164193
0.033481
-0.00157278
0.0843136
1.49026
-0.00336995
-0.000367983
1.48851
-0.00246191
0.00128855
1.48427
-0.00195002
0.00383732
1.47616
-0.00165598
0.00776352
1.4607
-0.00148234
0.0151562
1.42693
-0.0013813
0.0335181
-0.00133081
0.084343
1.49119
9.19338e-05
-0.00279377
1.48904
0.00166559
-0.00197933
1.48457
0.00407433
-0.00155236
1.47633
0.00790276
-0.0013223
1.46081
0.0152375
-0.0011932
1.42698
0.0335684
-0.00112004
0.08438
-0.0010834
0.10238
-0.00468867
-0.0016352
0.102053
-0.0042272
0.00202897
0.0994282
-0.00364152
0.00668306
0.0947448
-0.00313287
0.0125479
0.0885076
-0.00275068
0.0214234
0.0851181
-0.00249965
0.0368963
-0.00237263
0.06101
0.102813
-0.00481003
-0.00286479
0.102624
-0.00410133
0.00118857
0.0999387
-0.00347877
0.00624359
0.0951333
-0.00298555
0.0123377
0.0887678
-0.00262602
0.021332
0.085259
-0.00239212
0.0368636
-0.00227375
0.0610025
0.103529
-0.00467095
-0.00316548
0.103245
-0.00375183
0.00094095
0.100435
-0.00311878
0.0060992
0.0954975
-0.00267521
0.0122702
0.0890093
-0.0023702
0.02131
0.0853897
-0.00217682
0.036866
-0.00207948
0.0610162
0.104477
-0.0042391
-0.00292654
0.103893
-0.00321304
0.0011141
0.100886
-0.0026234
0.00620362
0.0958078
-0.0022613
0.0123383
0.0892092
-0.00203073
0.0213597
0.0854968
-0.00189
0.0369066
-0.00181971
0.0610534
0.105545
-0.00352328
-0.00224636
0.104511
-0.00253392
0.00164385
0.101261
-0.00206059
0.00652464
0.096044
-0.00180756
0.0125267
0.0893552
-0.00165915
0.0214734
0.0855738
-0.00157186
0.0369813
-0.00152816
0.0611114
0.106593
-0.000980985
-0.00267805
0.105018
0.00256977
-0.0018627
0.101525
0.00705106
-0.00154405
0.0961954
0.0128174
-0.00139275
0.0894453
0.0216377
-0.00130917
0.0856212
0.0370811
-0.00126043
0.0611836
-0.00123522
-0.015036
-0.00586214
-0.0070503
-0.0149579
-0.0051005
0.00160611
-0.0162511
-0.00411465
0.00788884
-0.0178063
-0.00337285
0.0140927
-0.0181165
-0.00286875
0.0217389
-0.0131823
-0.00255701
0.0319674
-0.00240625
0.0431559
-0.0141675
-0.00509261
-0.00931995
-0.0139984
-0.00440435
0.000323335
-0.0155
-0.00366435
0.00729492
-0.0172888
-0.00308488
0.0138386
-0.0177914
-0.00267461
0.0216404
-0.0130116
-0.00241372
0.0319406
-0.0022854
0.0431593
-0.013417
-0.00438883
-0.00965096
-0.013276
-0.0036209
1.64877e-05
-0.0149219
-0.00304858
0.00712935
-0.0168735
-0.0026348
0.0137716
-0.0175217
-0.00234447
0.0216281
-0.0128672
-0.00215821
0.0319561
-0.00206564
0.0431876
-0.0125634
-0.00349723
-0.00903439
-0.0126886
-0.00271018
0.000328591
-0.0145026
-0.00232746
0.00729648
-0.0165793
-0.00209495
0.0138751
-0.0173294
-0.00193701
0.0217023
-0.012763
-0.00183425
0.0320163
-0.00178219
0.0432427
-0.0116804
-0.00222431
-0.00765515
-0.0122635
-0.00163993
0.00115672
-0.014258
-0.00155748
0.00774918
-0.0164184
-0.00153569
0.0141278
-0.0172231
-0.00151169
0.0218528
-0.0127041
-0.00148801
0.032116
-0.00147325
0.0433211
-0.0110453
-0.000575129
-0.00506074
-0.0121324
-0.000605836
0.00262278
-0.0142316
-0.00089887
0.00849157
-0.0163979
-0.00106225
0.0145103
-0.0172002
-0.00113521
0.0220635
-0.0126872
-0.00116416
0.0322442
-0.00117342
0.0434147
1.51492
-0.00949164
-0.000751592
1.51443
-0.00997597
-0.000695356
1.51343
-0.0108229
-0.000574341
1.51167
-0.0118727
-0.000380661
1.50899
-0.0128744
-0.0001221
1.50548
-0.0134668
0.000116342
-0.013243
6.64801e-05
1.50178
1.51441
-0.00820593
-0.000662895
1.5136
-0.0085223
-0.000638987
1.51241
-0.00906049
-0.000576693
1.51071
-0.00969534
-0.000481032
1.50845
-0.0102412
-0.000366985
1.50573
-0.010461
-0.000287973
-0.0101248
-0.000362278
1.50297
1.51408
-0.00674479
-0.000575233
1.51307
-0.00693871
-0.000568347
1.5118
-0.0072592
-0.0005342
1.5102
-0.00761613
-0.000480731
1.50826
-0.00788058
-0.000419407
1.50608
-0.00790459
-0.000376069
-0.00756464
-0.000392888
1.50391
1.51388
-0.00520012
-0.000497738
1.51275
-0.00531114
-0.000499173
1.51146
-0.00548977
-0.000477069
1.50996
-0.00567539
-0.000439292
1.50825
-0.00578368
-0.00039311
1.50642
-0.00572643
-0.000348995
-0.00543944
-0.000318819
1.50462
1.51376
-0.00362294
-0.000437647
1.51257
-0.00368028
-0.000442699
1.51128
-0.00377277
-0.000425097
1.50986
-0.00386117
-0.000391897
1.50832
-0.00389433
-0.000347727
1.50671
-0.00382282
-0.000295675
-0.00361452
-0.000236841
1.50512
1.5137
-0.00202798
-0.000404831
1.51248
-0.00205125
-0.00041134
1.5112
-0.00209388
-0.000395091
1.50983
-0.00213111
-0.000362602
1.50839
-0.00213697
-0.000316883
1.50691
-0.00208781
-0.000257839
-0.00196931
-0.00018309
1.50545
1.51366
-0.000406293
1.51244
-0.000414386
1.51116
-0.000399289
1.50982
-0.000366941
1.50844
-0.000319881
1.50702
-0.000256667
-0.000173831
1.50562
0.132943
-0.0110533
-0.00169744
0.132433
-0.0116324
-0.00160135
0.131326
-0.0126764
-0.00140122
0.129319
-0.0140108
-0.00106726
0.126145
-0.0153398
-0.000592084
0.121772
-0.0162068
-0.000112435
-0.0159951
-0.000277298
0.116983
0.132316
-0.00954516
-0.00149005
0.131395
-0.00991454
-0.00143621
0.130036
-0.0105668
-0.00132755
0.128063
-0.0113575
-0.00116153
0.125373
-0.0120583
-0.00095764
0.122059
-0.012364
-0.000816795
-0.0119314
-0.00102441
0.118657
0.131913
-0.00783969
-0.00129281
0.130749
-0.0080595
-0.00125959
0.129282
-0.00844144
-0.00119228
0.127416
-0.00887815
-0.0010942
0.125126
-0.00920795
-0.000979657
0.122523
-0.00924134
-0.000896452
-0.00880183
-0.000939464
0.11994
0.131669
-0.00604265
-0.00112119
0.13037
-0.00616365
-0.00109683
0.12887
-0.00637293
-0.00104545
0.12712
-0.00659653
-0.000970071
0.125123
-0.00672783
-0.000876979
0.122972
-0.00665551
-0.000783746
-0.00629246
-0.000714915
0.120859
0.131529
-0.00421448
-0.000986337
0.130161
-0.00427352
-0.000965022
0.128662
-0.00438011
-0.000918363
0.127006
-0.00448508
-0.000847877
0.125209
-0.00452366
-0.000754639
0.123334
-0.00443434
-0.000642217
-0.00417546
-0.000512036
0.121493
0.13145
-0.00238495
-0.000896985
0.130047
-0.00240522
-0.000876882
0.128557
-0.00245382
-0.000830628
0.126966
-0.00249771
-0.000759383
0.12529
-0.00250357
-0.000661365
0.123575
-0.00244197
-0.000534419
-0.00229478
-0.000373045
0.121884
0.131398
-0.000857273
0.129989
-0.000838524
0.128508
-0.000792565
0.126951
-0.000719993
0.125336
-0.000618535
0.123695
-0.00048388
-0.00030872
0.122075
0.0115468
-0.0109727
-0.00274745
0.0111374
-0.0115916
-0.00267351
0.0101578
-0.0127447
-0.00251546
0.00825919
-0.0142761
-0.00221998
0.00500399
-0.0159167
-0.00172865
-3.9732e-05
-0.0171785
-0.00112051
-0.017013
-0.00638966
-0.00143269
0.0108659
-0.00945573
-0.00236423
0.00999127
-0.00984111
-0.00231208
0.00867771
-0.0105451
-0.00221362
0.00671565
-0.0114207
-0.00205486
0.00391551
-0.0122333
-0.00184086
0.000224039
-0.012625
-0.00167885
-0.0120517
-0.00374201
-0.00201966
0.0104364
-0.00775536
-0.00202435
0.00929525
-0.00797871
-0.00198082
0.00784519
-0.00838215
-0.00190513
0.00597418
-0.00885021
-0.00179368
0.00362498
-0.00921111
-0.0016527
0.000876893
-0.00924183
-0.00153151
-0.00868621
-0.00186372
-0.00156435
0.0101808
-0.00597372
-0.00174017
0.00889683
-0.00609303
-0.00169856
0.00740701
-0.00630969
-0.0016281
0.00565567
-0.00654222
-0.00152672
0.0036388
-0.00667694
-0.00139427
0.00144532
-0.00658616
-0.00124595
-0.00615546
-0.000688964
-0.00111137
0.010037
-0.00416862
-0.00152008
0.00868118
-0.00422462
-0.00147768
0.00719182
-0.00433293
-0.00140577
0.00554271
-0.00443901
-0.00130199
0.00374692
-0.0044741
-0.00116169
0.00187317
-0.00436968
-0.000984949
-0.00407562
5.26208e-05
-0.000771333
0.0099567
-0.00236614
-0.00136949
0.00856566
-0.0023839
-0.00132656
0.00708636
-0.00243271
-0.00125155
0.00550694
-0.00247607
-0.0011429
0.00384379
-0.00247871
-0.000993611
0.00214619
-0.00240853
-0.000797969
-0.00224498
0.000489801
-0.000547289
0.00990235
-0.00129179
0.00850342
-0.00124986
0.00703291
-0.00117349
0.0054886
-0.00106136
0.00388821
-0.000906629
0.00227049
-0.000701511
0.000687035
-0.000435445
1.49912
-0.0120154
-0.000635471
1.49733
-0.010292
-0.000934427
1.49609
-0.00841985
-0.000881007
1.49512
-0.00659193
-0.000630214
1.49425
-0.00491302
-0.000271624
-0.00345131
0.000161261
1.4933
1.50081
-0.00916574
-0.000683491
1.49918
-0.00788019
-0.000784398
1.4979
-0.00648797
-0.000655001
1.4968
-0.00512068
-0.000364779
1.4957
-0.00385818
4.22191e-05
-0.00275985
0.000568011
1.49444
1.50207
-0.00684479
-0.000479091
1.50055
-0.00590779
-0.000456756
1.49926
-0.00489332
-0.000297554
1.49805
-0.00389363
-1.84959e-05
1.49679
-0.00296896
0.000371738
-0.0021652
0.000897014
1.4953
1.50299
-0.00492379
-0.000293853
1.50155