/*--------------------------------*- C++ -*----------------------------------*\
  =========                 |
  \\      /  F ield         | OpenFOAM: The Open Source CFD Toolbox
   \\    /   O peration     | Website:  https://openfoam.org
    \\  /    A nd           | Version:  7
     \\/     M anipulation  |
\*---------------------------------------------------------------------------*/
FoamFile
{
    version     2.0;
    format      ascii;
    class       volVectorField;
    location    "0.25";
    object      U;
}
// * * * * * * * * * * * * * * * * * * * * * * * * * * * * * * * * * * * * * //

dimensions      [0 1 -1 0 0 0 0];

internalField   nonuniform List<vector> 
7784
(
(0.242374 0.000192954 -9.90919e-05)
(0.242272 0.000219371 -9.84912e-05)
(0.242118 0.000265292 -9.60339e-05)
(0.241882 0.000322814 -9.1521e-05)
(0.24155 0.000379385 -8.44425e-05)
(0.24113 0.000416758 -7.52677e-05)
(0.240663 0.000415983 -6.55012e-05)
(0.242401 0.000463324 -9.75672e-05)
(0.242336 0.000530399 -9.50193e-05)
(0.242208 0.000648903 -8.97252e-05)
(0.241981 0.000799622 -8.09256e-05)
(0.241632 0.000951353 -6.82588e-05)
(0.241162 0.00105535 -5.38332e-05)
(0.240623 0.00105668 -4.28257e-05)
(0.242453 0.000675846 -9.71968e-05)
(0.24246 0.000785439 -9.14015e-05)
(0.242388 0.000984213 -8.02175e-05)
(0.242185 0.00124542 -6.17313e-05)
(0.241806 0.00152061 -3.52592e-05)
(0.241237 0.00172292 -6.34729e-06)
(0.240545 0.0017383 9.31115e-06)
(0.24253 0.000788926 -9.60574e-05)
(0.242648 0.000941908 -8.41622e-05)
(0.242669 0.00122679 -6.10055e-05)
(0.242519 0.00161819 -2.14313e-05)
(0.24211 0.0020579 3.75715e-05)
(0.241382 0.00241405 0.000104542)
(0.240413 0.0024709 0.000136222)
(0.242631 0.000768434 -9.12284e-05)
(0.242901 0.000955831 -6.86229e-05)
(0.243065 0.00131661 -2.27016e-05)
(0.243016 0.00184127 6.00094e-05)
(0.242602 0.0024811 0.000191365)
(0.24165 0.00306664 0.000353705)
(0.240209 0.00322181 0.000437793)
(0.242748 0.000574536 -8.11147e-05)
(0.243199 0.0007659 -4.18679e-05)
(0.243556 0.00114989 4.26082e-05)
(0.243683 0.00174872 0.000204864)
(0.243336 0.00255779 0.000483331)
(0.242123 0.0034213 0.000868041)
(0.239909 0.0037732 0.00111743)
(0.242854 0.00019101 -6.72503e-05)
(0.24348 0.000327934 -7.19433e-06)
(0.244049 0.000615269 0.000130746)
(0.244424 0.00109895 0.000416941)
(0.244275 0.001834 0.000958877)
(0.242868 0.0027684 0.00182329)
(0.239516 0.00327554 0.00251799)
(0.0212466 0.000231115 -0.000308044)
(0.02113 0.00026318 -0.000305852)
(0.0209528 0.000320428 -0.000299322)
(0.0206807 0.000393396 -0.000287005)
(0.020295 0.000466768 -0.000267243)
(0.0198046 0.000517055 -0.000240666)
(0.0192564 0.000517682 -0.000210773)
(0.021281 0.000544362 -0.000308411)
(0.0212094 0.000625946 -0.000302553)
(0.0210655 0.00077236 -0.000289744)
(0.0208072 0.000962189 -0.000267659)
(0.020403 0.00115865 -0.000234491)
(0.0198515 0.00129976 -0.000194675)
(0.0192105 0.00130742 -0.000161269)
(0.0213456 0.000793152 -0.000311517)
(0.0213628 0.000928334 -0.000298414)
(0.021291 0.00117741 -0.000271661)
(0.0210688 0.00151303 -0.000225399)
(0.020636 0.00188046 -0.000156294)
(0.0199594 0.00216888 -7.69427e-05)
(0.0191096 0.00220768 -2.94972e-05)
(0.0214435 0.000930518 -0.000312198)
(0.0216001 0.00112354 -0.000284945)
(0.0216529 0.00148984 -0.000228105)
(0.0215119 0.00201082 -0.000126157)
(0.0210611 0.00262853 3.29617e-05)
(0.0201822 0.00317664 0.000224154)
(0.0189276 0.00331108 0.000325007)
(0.0215761 0.000915193 -0.000303211)
(0.0219292 0.00115881 -0.00024971)
(0.0221806 0.00164004 -0.000132871)
(0.0222079 0.00237448 8.90112e-05)
(0.0218022 0.00333916 0.000461299)
(0.0206429 0.00433698 0.000956897)
(0.0186176 0.00473358 0.00125228)
(0.0217332 0.00069632 -0.000279559)
(0.0223324 0.000954884 -0.000183126)
(0.0228707 0.00149354 4.0498e-05)
(0.0232114 0.00239407 0.00049704)
(0.0230243 0.00374449 0.00133619)
(0.0215802 0.00544498 0.00261166)
(0.018097 0.00645436 0.00355455)
(0.0218823 0.000246636 -0.00024417)
(0.0227332 0.000440339 -9.10572e-05)
(0.0236214 0.000870098 0.000290009)
(0.0244595 0.00167264 0.00114347)
(0.0248566 0.00310011 0.00292074)
(0.0233738 0.00536508 0.00623252)
(0.0173 0.0073143 0.0100178)
(0.00180805 0.000231161 -0.00052969)
(0.0016939 0.000265004 -0.000527783)
(0.00152096 0.000326498 -0.000521707)
(0.00125468 0.000406502 -0.000508599)
(0.000874399 0.000489587 -0.000484284)
(0.000386117 0.000549543 -0.000446855)
(-0.000163448 0.0005528 -0.000397833)
(0.00184471 0.000544042 -0.000539526)
(0.00177901 0.000631052 -0.000535237)
(0.0016438 0.000789958 -0.000525118)
(0.00139621 0.00100137 -0.000505004)
(0.00100015 0.00122942 -0.000469658)
(0.000445345 0.00140472 -0.000420081)
(-0.000213657 0.00142415 -0.000367344)
(0.00191421 0.000795718 -0.000556359)
(0.0019455 0.000942994 -0.000547222)
(0.00189373 0.00122026 -0.00052678)
(0.00169662 0.00160776 -0.000486101)
(0.00128225 0.00205775 -0.000416546)
(0.000588571 0.00244712 -0.000325136)
(-0.000334671 0.00253287 -0.0002551)
(0.00202236 0.000942375 -0.000573934)
(0.00221087 0.00115952 -0.000553962)
(0.00231132 0.00158407 -0.000507355)
(0.0022354 0.00222066 -0.000412498)
(0.00184193 0.00304143 -0.000245379)
(0.000924216 0.00387609 -1.70921e-05)
(-0.000574926 0.00419053 0.000133904)
(0.00217422 0.000942202 -0.000582672)
(0.00259551 0.00122852 -0.000539627)
(0.00295723 0.00181888 -0.000434096)
(0.00315449 0.0027909 -0.00020791)
(0.00293846 0.00422318 0.000222426)
(0.00174052 0.00599382 0.000885097)
(-0.00104887 0.00701602 0.00134107)
(0.00236323 0.000738161 -0.000573705)
(0.00309645 0.00105996 -0.000488434)
(0.00387601 0.00177462 -0.000265549)
(0.00464043 0.00310949 0.00025229)
(0.00504843 0.00546299 0.00136035)
(0.00373839 0.00928659 0.0033661)
(-0.00198827 0.0131814 0.00527478)
(0.00255511 0.000288482 -0.000545477)
(0.00364015 0.000546528 -0.000398121)
(0.00500878 0.00117592 2.0284e-05)
(0.00684544 0.00255854 0.0011137)
(0.00913674 0.00565716 0.00389003)
(0.00961652 0.013031 0.0110025)
(-0.00294846 0.0249698 0.0228809)
(0.240211 0.000370941 -5.57424e-05)
(0.239825 0.000299566 -4.28143e-05)
(0.239519 0.000222094 -2.43106e-05)
(0.239278 0.000151235 9.46097e-07)
(0.239073 9.24534e-05 3.43171e-05)
(0.238868 4.67994e-05 7.88952e-05)
(0.24011 0.000934424 -3.8607e-05)
(0.239696 0.000744995 -3.23686e-05)
(0.239391 0.00054478 -1.88742e-05)
(0.239166 0.000365602 3.2508e-06)
(0.238982 0.000219393 3.47696e-05)
(0.238798 0.000107279 7.82486e-05)
(0.239903 0.00150976 -2.3663e-06)
(0.239439 0.00117197 -1.29424e-05)
(0.239143 0.000832992 -1.04552e-05)
(0.238956 0.000542031 5.68603e-06)
(0.238818 0.000311913 3.41498e-05)
(0.238677 0.000139483 7.5977e-05)
(0.239547 0.00207744 7.93521e-05)
(0.239023 0.00154341 2.78843e-05)
(0.238764 0.00104846 6.59873e-06)
(0.238649 0.000648605 1.08967e-05)
(0.238584 0.000345817 3.36784e-05)
(0.238508 0.000125609 7.23725e-05)
(0.238976 0.00256163 0.000254083)
(0.238411 0.00178058 0.000108584)
(0.238249 0.00113193 3.94916e-05)
(0.238255 0.000646808 2.18069e-05)
(0.238296 0.000297828 3.43213e-05)
(0.238307 5.16509e-05 6.68398e-05)
(0.238106 0.0027218 0.000585753)
(0.237593 0.00170712 0.000245697)
(0.237631 0.000979765 9.26342e-05)
(0.237815 0.000482791 3.96894e-05)
(0.237989 0.000143081 3.6128e-05)
(0.238098 -9.16634e-05 5.76686e-05)
(0.236911 0.00203604 0.00113223)
(0.236669 0.00106026 0.000431093)
(0.237025 0.000480763 0.000159289)
(0.237418 0.000118065 6.12595e-05)
(0.237722 -0.000124136 3.64174e-05)
(0.237919 -0.000294197 4.00165e-05)
(0.0187285 0.000458313 -0.000179013)
(0.0182833 0.000366379 -0.000136877)
(0.017935 0.000269024 -7.82525e-05)
(0.0176661 0.000181588 -1.5685e-07)
(0.017444 0.000109908 0.000101021)
(0.0172305 5.46507e-05 0.000233421)
(0.0186045 0.00114395 -0.000143747)
(0.0181276 0.000899838 -0.00011778)
(0.0177837 0.000650266 -7.03296e-05)
(0.0175368 0.000431956 1.4758e-06)
(0.0173421 0.000256312 9.94174e-05)
(0.0171554 0.000122667 0.000230144)
(0.0183327 0.0018812 -5.69779e-05)
(0.017803 0.00143005 -7.55579e-05)
(0.0174813 0.000999608 -5.53489e-05)
(0.0172866 0.000641765 2.79859e-06)
(0.0171494 0.000363999 9.43963e-05)
(0.0170155 0.000157613 0.000221872)
(0.0178328 0.00268276 0.000157284)
(0.0172529 0.00192602 2.28566e-05)
(0.017003 0.00127661 -1.91243e-05)
(0.0169094 0.000775294 1.0321e-05)
(0.0168667 0.000405135 8.9096e-05)
(0.0168128 0.000138153 0.000209376)
(0.0169488 0.00349534 0.000647515)
(0.0163978 0.00229864 0.000228518)
(0.0163316 0.00141006 5.66467e-05)
(0.0164162 0.000785784 3.13803e-05)
(0.0165134 0.000351242 8.63085e-05)
(0.0165661 4.61306e-05 0.00019112)
(0.0154004 0.00404722 0.00163873)
(0.0151678 0.00231456 0.000586877)
(0.01549 0.00126458 0.000182623)
(0.0158503 0.000603945 6.97958e-05)
(0.0161268 0.000169543 8.75956e-05)
(0.0163009 -0.000133689 0.000162573)
(0.012843 0.00343939 0.00327896)
(0.0136247 0.00154983 0.00103492)
(0.0146255 0.000668576 0.000336315)
(0.0153242 0.000170697 0.0001185)
(0.0157782 -0.000153065 8.71855e-05)
(0.0160579 -0.00039195 0.000107972)
(-0.000688017 0.000483039 -0.000337774)
(-0.00112025 0.00037942 -0.000257671)
(-0.00144897 0.000274088 -0.000151996)
(-0.00169352 0.00018224 -1.80881e-05)
(-0.00188339 0.000108358 0.000148401)
(-0.00204922 5.20168e-05 0.000357765)
(-0.000828142 0.00122185 -0.000321431)
(-0.00128928 0.000938687 -0.000255258)
(-0.00160701 0.000664716 -0.000157242)
(-0.00182424 0.000433805 -2.61106e-05)
(-0.00198357 0.000252108 0.000139961)
(-0.00212081 0.00011532 0.000349558)
(-0.00115846 0.0020804 -0.000261016)
(-0.00166026 0.0015232 -0.000239357)
(-0.00193561 0.00103449 -0.000163629)
(-0.00208731 0.000648983 -4.04758e-05)
(-0.0021827 0.000358356 0.000123778)
(-0.00226412 0.000144573 0.000332862)
(-0.00183159 0.00315386 -6.4352e-05)
(-0.00232813 0.0021261 -0.000174724)
(-0.00247345 0.00135061 -0.000156896)
(-0.00249206 0.000795152 -5.39841e-05)
(-0.00247924 0.000400828 0.000104161)
(-0.00247573 0.000118044 0.000309214)
(-0.00322033 0.00449957 0.000483835)
(-0.00346242 0.00266565 -5.37323e-06)
(-0.00326564 0.00153895 -0.000119996)
(-0.00303614 0.000823949 -5.88296e-05)
(-0.0028588 0.000350727 8.58606e-05)
(-0.00274314 1.46784e-05 0.000277403)
(-0.00614709 0.00582443 0.00169762)
(-0.00527849 0.0028139 0.000299928)
(-0.00431001 0.00143351 -5.25167e-05)
(-0.00367661 0.000657412 -5.10884e-05)
(-0.00328536 0.000172753 7.60218e-05)
(-0.00305085 -0.000186066 0.000235411)
(-0.0124464 0.0061236 0.00424285)
(-0.00763147 0.00190806 0.000523253)
(-0.00529188 0.000807228 -2.23978e-06)
(-0.00419683 0.000224873 -2.97829e-05)
(-0.00361447 -0.00015753 8.68626e-05)
(-0.00331609 -0.000490464 0.000177362)
(0.238615 1.33009e-05 0.000141521)
(0.238253 -9.97175e-06 0.000236711)
(0.237684 -2.59791e-05 0.000396323)
(0.236719 -3.87864e-05 0.00069267)
(0.234764 -4.81821e-05 0.00132221)
(0.230971 -5.25969e-05 0.00297281)
(0.23446 -0.000193759 0.00706647)
(0.238565 2.60935e-05 0.000140285)
(0.238217 -2.90003e-05 0.000235499)
(0.237657 -6.50089e-05 0.000395893)
(0.236698 -9.03684e-05 0.000694882)
(0.234747 -0.000108955 0.00132625)
(0.230837 -0.000123898 0.00298237)
(0.234312 -0.000287819 0.00718351)
(0.238481 1.74033e-05 0.000137154)
(0.238164 -6.21656e-05 0.000232456)
(0.237625 -0.00011045 0.000393664)
(0.236678 -0.000139392 0.000694081)
(0.234731 -0.000159386 0.00132756)
(0.23079 -0.000180989 0.00298581)
(0.234272 -0.000229468 0.00721103)
(0.238368 -2.59295e-05 0.00013172)
(0.238094 -0.00011872 0.000227273)
(0.237586 -0.000169386 0.000389932)
(0.236656 -0.000194702 0.000692257)
(0.234716 -0.000207986 0.00132794)
(0.230772 -0.000219194 0.00298918)
(0.23426 -0.000233258 0.00721854)
(0.238238 -0.000112841 0.000121763)
(0.238022 -0.000203527 0.000217785)
(0.23755 -0.000244144 0.000383057)
(0.236641 -0.000257314 0.000688226)
(0.234709 -0.000258896 0.0013264)
(0.230766 -0.000258595 0.00298988)
(0.234256 -0.000259565 0.00722099)
(0.238113 -0.000244903 0.000102804)
(0.237963 -0.000313027 0.000200673)
(0.237532 -0.000329181 0.000371292)
(0.236641 -0.000321728 0.000681283)
(0.234715 -0.00030759 0.00132294)
(0.230771 -0.000295661 0.00298875)
(0.234258 -0.000289028 0.00722117)
(0.238017 -0.000403789 6.62449e-05)
(0.237938 -0.000428357 0.000171155)
(0.237542 -0.000409152 0.00035294)
(0.236663 -0.000376895 0.000671147)
(0.234735 -0.000346344 0.00131787)
(0.230785 -0.000323947 0.00298657)
(0.234263 -0.000311699 0.00722038)
(0.0169829 1.44249e-05 0.000414285)
(0.0166523 -1.29258e-05 0.000677851)
(0.0161822 -3.06178e-05 0.00109241)
(0.0155099 -4.20271e-05 0.00179737)
(0.0145523 -4.80984e-05 0.00311779)
(0.0137238 -5.12914e-05 0.00599823)
(0.0166952 -0.000108203 0.0120539)
(0.0169317 2.65288e-05 0.000410345)
(0.0166206 -3.74752e-05 0.000674515)
(0.0161646 -7.74769e-05 0.00109098)
(0.0155034 -0.00010208 0.00180006)
(0.0145571 -0.000116786 0.00312121)
(0.0136818 -0.0001284 0.00600771)
(0.0166492 -0.000199263 0.0121805)
(0.0168379 1.2232e-05 0.000400387)
(0.0165641 -8.04185e-05 0.000665256)
(0.0161346 -0.000134525 0.00108401)
(0.0154896 -0.000164812 0.00179621)
(0.0145501 -0.000183309 0.00312077)
(0.0136626 -0.000200902 0.00600898)
(0.0166337 -0.000231725 0.0122211)
(0.0167034 -4.54485e-05 0.000383124)
(0.0164843 -0.00015347 0.000649233)
(0.0160916 -0.000208969 0.00107239)
(0.0154676 -0.000234236 0.00178974)
(0.0145365 -0.000245619 0.0031194)
(0.0136488 -0.000254358 0.00601329)
(0.0166244 -0.000264438 0.012232)
(0.0165476 -0.00016047 0.000351309)
(0.016402 -0.000264471 0.000619783)
(0.0160553 -0.000304384 0.00105147)
(0.0154548 -0.000312545 0.00177739)
(0.0145326 -0.000308913 0.00311403)
(0.0136457 -0.000304803 0.00601351)
(0.016622 -0.000303701 0.0122363)
(0.0163927 -0.000341256 0.000288291)
(0.0163404 -0.000412328 0.000564912)
(0.0160435 -0.000415129 0.00101515)
(0.0154632 -0.000393785 0.00175647)
(0.014545 -0.000369087 0.00310361)
(0.0136545 -0.00035058 0.00600973)
(0.0166253 -0.000340917 0.012236)
(0.0162686 -0.000569018 0.000148045)
(0.0163281 -0.000572714 0.000462092)
(0.0160739 -0.000520242 0.000956121)
(0.015501 -0.000463135 0.00172538)
(0.0145765 -0.00041642 0.00308854)
(0.0136748 -0.000384709 0.00600335)
(0.0166335 -0.000368347 0.0122336)
(-0.00221961 1.14342e-05 0.000630487)
(-0.00241833 -1.53447e-05 0.00100339)
(-0.0026558 -3.16523e-05 0.00153942)
(-0.00290894 -4.11092e-05 0.00234428)
(-0.00306521 -4.66283e-05 0.00359542)
(-0.00263617 -5.64026e-05 0.00560778)
(-0.000511473 -9.28071e-05 0.0083824)
(-0.00226568 1.77103e-05 0.000622783)
(-0.00244317 -4.52948e-05 0.000996948)
(-0.00266502 -8.24944e-05 0.00153469)
(-0.00290757 -0.000103345 0.002341)
(-0.00306181 -0.00011567 0.00358957)
(-0.00265657 -0.000131755 0.00559585)
(-0.00052903 -0.000176865 0.00841792)
(-0.00236027 -5.68334e-06 0.000605731)
(-0.00249784 -9.72933e-05 0.000981929)
(-0.00269198 -0.00014704 0.00152303)
(-0.00291847 -0.000171986 0.00233266)
(-0.00306729 -0.000185323 0.00358354)
(-0.00266904 -0.000197691 0.00559011)
(-0.000538481 -0.000216734 0.00842755)
(-0.00249803 -7.92692e-05 0.000577383)
(-0.00257455 -0.000185402 0.000957015)
(-0.00272918 -0.000232548 0.00150532)
(-0.00293461 -0.000249024 0.00232232)
(-0.00307533 -0.000252963 0.00357958)
(-0.00267662 -0.000255334 0.00559198)
(-0.000543569 -0.00025984 0.00843463)
(-0.00266253 -0.000227545 0.00052562)
(-0.00264985 -0.000324386 0.000911074)
(-0.00275427 -0.000345684 0.00147391)
(-0.00293739 -0.000337735 0.00230412)
(-0.00307158 -0.000322658 0.00357131)
(-0.00267399 -0.000310934 0.00559088)
(-0.000543097 -0.000305759 0.0084381)
(-0.0028373 -0.000491576 0.000415005)
(-0.00269272 -0.000526739 0.000820634)
(-0.00274253 -0.000483967 0.00141793)
(-0.00291149 -0.000432299 0.00227337)
(-0.00304782 -0.000389518 0.00355649)
(-0.0026585 -0.000360851 0.00558553)
(-0.000536983 -0.00034671 0.00843752)
(-0.00296533 -0.000891069 0.000108738)
(-0.00264244 -0.000772781 0.000627442)
(-0.00265985 -0.000622023 0.00132002)
(-0.00284284 -0.000513774 0.00222615)
(-0.00299931 -0.000441523 0.00353498)
(-0.00262954 -0.000397158 0.00557702)
(-0.00052564 -0.000375693 0.00843478)
(0.242907 -0.000338792 -5.67012e-05)
(0.243626 -0.000322603 1.77916e-05)
(0.244327 -0.000289743 0.000198121)
(0.244902 -0.00024007 0.000601304)
(0.245006 -0.000175002 0.00145666)
(0.243571 -0.000109245 0.00303502)
(0.239201 -9.93278e-05 0.00464859)
(0.242873 -0.000891972 -5.8176e-05)
(0.243529 -0.00100243 6.29938e-06)
(0.244131 -0.00123685 0.000154894)
(0.244539 -0.00164381 0.000464154)
(0.244406 -0.00228478 0.00105325)
(0.242944 -0.00313439 0.00200135)
(0.239396 -0.00363752 0.00276468)
(0.242779 -0.00133854 -6.46131e-05)
(0.243279 -0.00151698 -1.87715e-05)
(0.243685 -0.00187605 8.07431e-05)
(0.243854 -0.00244394 0.000273114)
(0.243515 -0.00322459 0.000606782)
(0.242212 -0.00407707 0.00107646)
(0.239748 -0.00444245 0.0013812)
(0.242666 -0.00161959 -6.90506e-05)
(0.242988 -0.00180831 -3.97221e-05)
(0.243202 -0.00217154 2.08509e-05)
(0.24319 -0.00270483 0.000131186)
(0.242773 -0.00336308 0.000309551)
(0.241724 -0.00397576 0.00053791)
(0.240058 -0.00414311 0.000660419)
(0.24256 -0.00173617 -6.92106e-05)
(0.242723 -0.00190191 -5.16635e-05)
(0.242786 -0.00220973 -1.6596e-05)
(0.242662 -0.00263609 4.44092e-05)
(0.242244 -0.00312027 0.000138007)
(0.241431 -0.00351897 0.000250788)
(0.24029 -0.0035838 0.000306769)
(0.242473 -0.00171774 -6.56643e-05)
(0.24251 -0.0018481 -5.58189e-05)
(0.242466 -0.00208339 -3.6331e-05)
(0.242279 -0.0023947 -3.71324e-06)
(0.24189 -0.00272591 4.40033e-05)
(0.24126 -0.00297384 9.84439e-05)
(0.240455 -0.00299226 0.000122028)
(0.0219615 -0.000389844 -0.000215204)
(0.0229599 -0.000366037 -2.01282e-05)
(0.0241038 -0.000316807 0.000496416)
(0.0254427 -0.000236046 0.00176953)
(0.0267273 -0.000113458 0.00484999)
(0.025873 4.59282e-05 0.0124177)
(0.0169515 0.000124911 0.024729)
(0.0219099 -0.00105534 -0.000217141)
(0.0228055 -0.00121046 -5.11035e-05)
(0.0237506 -0.00156285 0.000363112)
(0.0246628 -0.00224607 0.00129463)
(0.0251386 -0.00350914 0.00325442)
(0.0236128 -0.00559114 0.00696295)
(0.0171204 -0.00745502 0.0112835)
(0.0217778 -0.00158225 -0.000230202)
(0.0224467 -0.0018221 -0.000114732)
(0.0230657 -0.00232686 0.000154729)
(0.0234949 -0.00318673 0.000709295)
(0.0233717 -0.00450408 0.00174782)
(0.0218222 -0.00620901 0.0033893)
(0.017813 -0.00725388 0.00471521)
(0.0216248 -0.00190603 -0.000236455)
(0.022052 -0.00215054 -0.000163704)
(0.0223823 -0.00263677 -2.79733e-06)
(0.0224846 -0.00338984 0.000306865)
(0.0221128 -0.00439637 0.000842214)
(0.0208315 -0.00546446 0.00160547)
(0.0183656 -0.00589969 0.00213844)
(0.0214858 -0.00203508 -0.000230846)
(0.0217056 -0.00224379 -0.000187441)
(0.0218221 -0.00264213 -9.50134e-05)
(0.0217346 -0.00321725 7.42649e-05)
(0.0212964 -0.00391239 0.000351502)
(0.0203093 -0.00455016 0.000725496)
(0.0187328 -0.00471974 0.000980172)
(0.0213743 -0.00200749 -0.000215557)
(0.0214343 -0.00216802 -0.000190835)
(0.0214043 -0.00246558 -0.000139378)
(0.0212137 -0.00287364 -4.90559e-05)
(0.0207798 -0.00333218 9.22609e-05)
(0.0200196 -0.00371439 0.000274957)
(0.0189598 -0.00379152 0.000395315)
(0.00266652 -0.000376475 -0.000513624)
(0.00398895 -0.000343551 -0.000314627)
(0.00588937 -0.000271503 0.000297114)
(0.00912888 -0.000135322 0.00208689)
(0.0155999 0.000123141 0.00776177)
(0.0245883 0.000593391 0.0289128)
(0.00363315 0.00119102 0.0911176)
(0.00259284 -0.00107377 -0.000505134)
(0.00374405 -0.00127958 -0.000339954)
(0.00521616 -0.00180024 0.000128061)
(0.00723993 -0.0029949 0.00135449)
(0.00986779 -0.00578407 0.00449084)
(0.0108532 -0.0126463 0.0125737)
(-0.00211753 -0.0238045 0.027455)
(0.00242272 -0.00160767 -0.00049892)
(0.00325495 -0.00190555 -0.000387657)
(0.00417094 -0.00257903 -9.76636e-05)
(0.00513757 -0.00386772 0.000579324)
(0.00582244 -0.00620708 0.00206402)
(0.0046732 -0.01013 0.0049336)
(-0.0019565 -0.014092 0.00855597)
(0.00223801 -0.00192267 -0.000479408)
(0.00276124 -0.00221064 -0.000410194)
(0.00324999 -0.00281305 -0.000240919)
(0.00360906 -0.00382575 0.000123851)
(0.00356827 -0.00536068 0.000849352)
(0.00237209 -0.00733804 0.00211134)
(-0.00119684 -0.00846944 0.00355017)
(0.00207739 -0.00203968 -0.000445237)
(0.00235147 -0.00227626 -0.000403273)
(0.00255127 -0.00274597 -0.000305341)
(0.00258892 -0.00346729 -0.000105192)
(0.00229885 -0.004431 0.000272534)
(0.00134398 -0.00547469 0.000906073)
(-0.000703342 -0.00586935 0.00168703)
(0.00195211 -0.00200254 -0.000401595)
(0.00204164 -0.00217974 -0.000376525)
(0.00205418 -0.00251997 -0.000320466)
(0.00192337 -0.00301147 -0.000211121)
(0.00155556 -0.00361759 -1.30784e-05)
(0.000809725 -0.00422024 0.000314223)
(-0.000468299 -0.00443803 0.000748762)
(0.235901 -0.000229 0.00167417)
(0.236041 -0.000311417 0.000564526)
(0.23669 -0.000363656 0.000202456)
(0.23721 -0.000411333 7.29932e-05)
(0.237577 -0.000459833 2.6996e-05)
(0.237819 -0.000506483 6.80081e-06)
(0.236702 -0.00256121 0.00115711)
(0.236536 -0.00171097 0.000434076)
(0.236926 -0.0012223 0.000166588)
(0.237322 -0.000940574 6.0395e-05)
(0.237627 -0.000777232 1.5775e-05)
(0.237843 -0.00068029 -1.29362e-05)
(0.237818 -0.0034068 0.000652925)
(0.237379 -0.00244115 0.000270797)
(0.23746 -0.00176452 0.000109184)
(0.237655 -0.0013093 3.9352e-05)
(0.237837 -0.0010038 5.75729e-06)
(0.237982 -0.00079447 -2.15704e-05)
(0.238699 -0.00343085 0.000339477)
(0.238178 -0.00263528 0.000148501)
(0.238058 -0.00198215 6.03482e-05)
(0.238083 -0.00148508 1.99633e-05)
(0.238142 -0.00111452 -1.44744e-06)
(0.238201 -0.000837617 -2.22389e-05)
(0.239323 -0.00311998 0.000159312)
(0.238828 -0.00252508 6.60914e-05)
(0.23861 -0.0019703 2.2056e-05)
(0.238523 -0.00150112 2.78703e-06)
(0.238485 -0.00111887 -6.52282e-06)
(0.238464 -0.000812538 -1.65408e-05)
(0.239756 -0.00268702 4.60659e-05)
(0.239328 -0.00225433 2.10618e-07)
(0.239082 -0.00180775 -1.68641e-05)
(0.238934 -0.00139607 -1.82711e-05)
(0.238831 -0.00103599 -1.24835e-05)
(0.238742 -0.000731614 -4.93309e-06)
(0.0102056 -0.000231923 0.00542446)
(0.012506 -0.000357145 0.00129141)
(0.0141737 -0.000415367 0.000446282)
(0.0150761 -0.000478348 0.000154495)
(0.0156051 -0.000553019 5.23058e-05)
(0.0159281 -0.000638025 -1.86365e-05)
(0.0125365 -0.00393967 0.00323463)
(0.0135289 -0.00226322 0.001012)
(0.0145616 -0.00150681 0.000371977)
(0.0152308 -0.00112351 0.000128005)
(0.0156574 -0.000922173 2.36715e-05)
(0.0159362 -0.000816826 -7.80168e-05)
(0.0149204 -0.00473192 0.00174498)
(0.0149269 -0.00310281 0.000634672)
(0.0153149 -0.00214846 0.000243529)
(0.0156621 -0.00155789 8.26267e-05)
(0.0159133 -0.00118131 1.96445e-06)
(0.0160962 -0.000931218 -9.88402e-05)
(0.0164953 -0.00445252 0.0008818)
(0.0161039 -0.00325202 0.000344149)
(0.0161062 -0.00238295 0.000132996)
(0.0161978 -0.0017582 4.0242e-05)
(0.0162843 -0.00130509 -1.30437e-05)
(0.0163618 -0.000967657 -9.71902e-05)
(0.0174736 -0.00390092 0.000406339)
(0.0169922 -0.00307049 0.000147496)
(0.0168089 -0.00235955 4.36883e-05)
(0.0167401 -0.00177822 1.95232e-07)
(0.0167043 -0.00130888 -2.46248e-05)
(0.0166895 -0.000926814 -7.86826e-05)
(0.0180857 -0.00330986 9.51647e-05)
(0.0176425 -0.00273974 -3.25317e-05)
(0.0173985 -0.00217791 -6.79792e-05)
(0.0172484 -0.00166524 -6.42273e-05)
(0.0171359 -0.00121327 -4.67363e-05)
(0.0170488 -0.000818619 -4.48589e-05)
(-0.0202813 -0.000186895 0.00788978)
(-0.00832972 -0.000309682 0.00101356)
(-0.00500236 -0.000334863 0.000239218)
(-0.00387406 -0.000404901 7.838e-05)
(-0.00331955 -0.000510262 2.66269e-05)
(-0.00307449 -0.000662862 -5.50043e-05)
(-0.0112137 -0.00551937 0.00349409)
(-0.00641472 -0.00224266 0.000651277)
(-0.00451465 -0.00138797 0.000208001)
(-0.00368422 -0.000999589 6.8732e-05)
(-0.00325962 -0.000818284 5.72587e-06)
(-0.00309243 -0.000752114 -0.000115237)
(-0.00596395 -0.00539474 0.001461)
(-0.00454506 -0.00298544 0.000387263)
(-0.00371278 -0.00195953 0.000136022)
(-0.00326349 -0.00138107 4.41127e-05)
(-0.00302829 -0.00103401 -6.62157e-06)
(-0.00296153 -0.000816558 -0.000130567)
(-0.00339443 -0.0045895 0.000687549)
(-0.0031497 -0.00303543 0.000204954)
(-0.00291278 -0.00214585 7.34951e-05)
(-0.00275784 -0.00155272 2.08013e-05)
(-0.00268811 -0.00113648 -1.43273e-05)
(-0.00271206 -0.000826754 -0.000124906)
(-0.0020355 -0.00381162 0.000312792)
(-0.00218757 -0.00283333 8.32845e-05)
(-0.00223211 -0.00213319 1.98857e-05)
(-0.00225408 -0.0015855 -3.76539e-06)
(-0.0022977 -0.00114606 -2.11333e-05)
(-0.00238447 -0.000774497 -0.000104112)
(-0.00130934 -0.00323764 4.47446e-05)
(-0.00154116 -0.00261068 -7.12238e-05)
(-0.00168272 -0.00205563 -8.50892e-05)
(-0.00178798 -0.00154886 -6.98718e-05)
(-0.00189309 -0.0010905 -4.85324e-05)
(-0.00200815 -0.000657165 -6.96517e-05)
(0.237978 -0.000536463 5.10784e-06)
(0.237958 -0.000510494 0.000128334)
(0.237583 -0.000459964 0.000329486)
(0.236704 -0.000408665 0.000659277)
(0.234768 -0.000366678 0.00131225)
(0.230806 -0.00033755 0.00298417)
(0.234272 -0.000321992 0.00721945)
(0.238013 -0.000614122 -2.96438e-05)
(0.238014 -0.000542044 0.000101539)
(0.237644 -0.000471239 0.000313571)
(0.236756 -0.000410871 0.000650927)
(0.234807 -0.000364792 0.00130832)
(0.23083 -0.000333777 0.00298262)
(0.234281 -0.000317428 0.00721902)
(0.238117 -0.000645882 -4.13561e-05)
(0.238101 -0.000534766 9.20252e-05)
(0.237715 -0.000450481 0.000307705)
(0.236811 -0.000387697 0.000647954)
(0.234846 -0.000342997 0.00130718)
(0.230854 -0.00031392 0.00298254)
(0.234291 -0.000298793 0.00721949)
(0.238273 -0.000632769 -3.63678e-05)
(0.238209 -0.000495739 9.66978e-05)
(0.237791 -0.000405707 0.000311062)
(0.236864 -0.000345885 0.000650354)
(0.234881 -0.000306368 0.00130901)
(0.230875 -0.000281727 0.00298408)
(0.234299 -0.000269114 0.00722098)
(0.238459 -0.000577867 -1.73053e-05)
(0.238328 -0.000431584 0.000113663)
(0.237864 -0.000345065 0.000322579)
(0.23691 -0.000293002 0.000657576)
(0.23491 -0.000261089 0.00131351)
(0.230891 -0.000242082 0.0029871)
(0.234305 -0.000232502 0.00722337)
(0.238654 -0.000493449 1.6939e-05)
(0.238442 -0.000354739 0.000142643)
(0.237929 -0.000279564 0.000341343)
(0.236948 -0.000237813 0.000668774)
(0.234932 -0.0002138 0.0013201)
(0.230903 -0.00020003 0.00299119)
(0.23431 -0.00019315 0.00722639)
(0.0162306 -0.000721839 -0.000133124)
(0.0163889 -0.00066632 0.000297054)
(0.0161531 -0.000577408 0.000876003)
(0.0155671 -0.000498588 0.00168799)
(0.0146242 -0.000439061 0.00307171)
(0.0137039 -0.000399925 0.00599643)
(0.016645 -0.000379949 0.012231)
(0.016265 -0.000764368 -0.000266473)
(0.0164733 -0.00067067 0.00020266)
(0.0162416 -0.000573451 0.000824364)
(0.0156394 -0.000492505 0.00166235)
(0.0146761 -0.000432476 0.00306017)
(0.0137354 -0.000393203 0.00599209)
(0.0166575 -0.000373154 0.0122299)
(0.0163858 -0.000762739 -0.000302441)
(0.0165806 -0.000631392 0.000172911)
(0.0163313 -0.000530353 0.000806572)
(0.0157082 -0.000454919 0.00165372)
(0.0147244 -0.000401361 0.00305714)
(0.0137647 -0.000366908 0.00599213)
(0.0166692 -0.000349375 0.0122314)
(0.0165729 -0.00071735 -0.000278074)
(0.0167063 -0.000559805 0.000191248)
(0.0164181 -0.000460969 0.00081826)
(0.0157685 -0.00039604 0.00166158)
(0.0147648 -0.000352975 0.00306294)
(0.0137887 -0.000326149 0.00599693)
(0.0166787 -0.000312617 0.0122359)
(0.0168005 -0.000624503 -0.00020395)
(0.0168376 -0.000460886 0.000250653)
(0.016495 -0.000374915 0.000855759)
(0.0158163 -0.000325529 0.00168413)
(0.0147949 -0.000295286 0.00307671)
(0.0138062 -0.000277158 0.00600601)
(0.0166856 -0.000268076 0.0122429)
(0.0170439 -0.000493948 -6.78353e-05)
(0.0169564 -0.000348989 0.00035379)
(0.0165534 -0.000286435 0.00091712)
(0.0158482 -0.000254866 0.00171903)
(0.0148138 -0.000236855 0.00309672)
(0.0138169 -0.000226323 0.00601825)
(0.0166898 -0.000220993 0.0122518)
(-0.00281598 -0.00102756 -0.000739668)
(-0.0023879 -0.000860446 0.000273537)
(-0.00248361 -0.000674834 0.00117689)
(-0.00273089 -0.000545936 0.00216673)
(-0.00293032 -0.000462003 0.00351059)
(-0.00259073 -0.0004111 0.00556793)
(-0.000510724 -0.000386518 0.00843196)
(-0.00276462 -0.000877202 -0.00104044)
(-0.00223776 -0.000763718 9.4421e-05)
(-0.0023442 -0.000626373 0.00109016)
(-0.00262991 -0.000520078 0.00212784)
(-0.00286357 -0.000446113 0.00349461)
(-0.002552 -0.000399716 0.00556279)
(-0.000495621 -0.000376909 0.00843144)
(-0.00265285 -0.000759076 -0.00109541)
(-0.00211729 -0.000643406 4.75122e-05)
(-0.00223916 -0.000539076 0.00106394)
(-0.00255052 -0.000459536 0.00211635)
(-0.00280908 -0.000403202 0.00349151)
(-0.00251955 -0.000367181 0.00556404)
(-0.000482785 -0.000349237 0.00843471)
(-0.00246828 -0.000635596 -0.00102366)
(-0.00200306 -0.000508949 8.7678e-05)
(-0.00215969 -0.000431346 0.00108613)
(-0.00249393 -0.000379248 0.00213024)
(-0.0027704 -0.000343269 0.00350148)
(-0.00249627 -0.000320116 0.00557215)
(-0.000473489 -0.000308461 0.00844211)
(-0.00223471 -0.000462335 -0.000849418)
(-0.00190241 -0.00034911 0.000200871)
(-0.00210897 -0.000310401 0.00115013)
(-0.00246235 -0.000289942 0.00216649)
(-0.00274923 -0.000275661 0.00352309)
(-0.00248327 -0.000265792 0.00558634)
(-0.000468184 -0.000260562 0.00845316)
(-0.0019926 -0.00021315 -0.000521143)
(-0.00184575 -0.000170998 0.000401241)
(-0.00210024 -0.000191802 0.00125558)
(-0.00245911 -0.000205461 0.00222206)
(-0.00274565 -0.000210572 0.00355387)
(-0.00248 -0.000211611 0.00560498)
(-0.00046657 -0.000211472 0.00846665)
(0.242408 -0.00160071 -5.98054e-05)
(0.242354 -0.00169526 -5.47738e-05)
(0.242237 -0.00186167 -4.45642e-05)
(0.242019 -0.00207289 -2.83711e-05)
(0.241664 -0.00228349 -7.03561e-06)
(0.241165 -0.0024231 1.21835e-05)
(0.240576 -0.00240613 8.81676e-06)
(0.242363 -0.00141846 -5.28993e-05)
(0.242246 -0.00148239 -5.06518e-05)
(0.242086 -0.00159204 -4.54282e-05)
(0.241857 -0.001725 -3.74431e-05)
(0.241539 -0.00184641 -2.79763e-05)
(0.241137 -0.00190894 -2.14072e-05)
(0.240693 -0.00186271 -2.67731e-05)
(0.242333 -0.00119744 -4.59804e-05)
(0.242177 -0.00123795 -4.5225e-05)
(0.241993 -0.00130559 -4.2409e-05)
(0.241764 -0.0013834 -3.79901e-05)
(0.24148 -0.00144634 -3.29418e-05)
(0.241148 -0.00146403 -2.93772e-05)
(0.240797 -0.00140892 -3.06061e-05)
(0.242315 -0.00095633 -3.98317e-05)
(0.242136 -0.000980382 -3.98166e-05)
(0.241939 -0.0010195 -3.80417e-05)
(0.241716 -0.00106176 -3.4976e-05)
(0.241459 -0.0010903 -3.12294e-05)
(0.241175 -0.00108651 -2.7674e-05)
(0.240882 -0.00103584 -2.52627e-05)
(0.242304 -0.000706388 -3.5063e-05)
(0.242112 -0.000719701 -3.5382e-05)