/*--------------------------------*- C++ -*----------------------------------*\
  =========                 |
  \\      /  F ield         | OpenFOAM: The Open Source CFD Toolbox
   \\    /   O peration     | Website:  https://openfoam.org
    \\  /    A nd           | Version:  7
     \\/     M anipulation  |
\*---------------------------------------------------------------------------*/
FoamFile
{
    version     2.0;
    format      ascii;
    class       volVectorField;
    location    "0.25";
    object      U;
}
// * * * * * * * * * * * * * * * * * * * * * * * * * * * * * * * * * * * * * //

dimensions      [0 1 -1 0 0 0 0];

internalField   nonuniform List<vector> 
7784
(
(0.0835095 0.00482876 6.3297e-05)
(0.0833763 0.00537076 6.06914e-05)
(0.0830073 0.00625986 5.65417e-05)
(0.0823948 0.00747499 7.95031e-05)
(0.081606 0.00896471 0.000109199)
(0.0806912 0.0106273 0.000141437)
(0.0797406 0.0122967 0.000171988)
(0.083988 0.00460827 6.46716e-05)
(0.0842088 0.00537849 7.30165e-05)
(0.0841389 0.00644883 0.000109639)
(0.0838115 0.00782121 0.000171761)
(0.0832119 0.00941709 0.000256055)
(0.0823435 0.0111162 0.00036072)
(0.0812439 0.0127368 0.000476595)
(0.0846893 0.00401951 6.31675e-05)
(0.0852169 0.00496797 0.000109275)
(0.08545 0.00621885 0.000185951)
(0.0853631 0.00773214 0.000301597)
(0.0849011 0.0094308 0.000463535)
(0.084011 0.0111785 0.000671897)
(0.0826802 0.0127684 0.000910516)
(0.0856011 0.00305901 8.74553e-05)
(0.0864082 0.0041828 0.000166009)
(0.0869031 0.00555774 0.000292491)
(0.0870234 0.00715849 0.000485998)
(0.0866583 0.00890951 0.000764514)
(0.0856811 0.0106521 0.00113383)
(0.0840257 0.012135 0.00156707)
(0.0866895 0.00180214 0.000116808)
(0.0877156 0.00302573 0.000238657)
(0.0884257 0.00443312 0.000434123)
(0.0887149 0.0060149 0.000738794)
(0.0883947 0.00769232 0.00119047)
(0.0872365 0.00926832 0.00180777)
(0.0851136 0.0104037 0.002545)
(0.0878843 0.00031682 0.000146441)
(0.0890392 0.00152852 0.000324425)
(0.0898923 0.00282763 0.000609134)
(0.0902826 0.00421604 0.00106263)
(0.0899117 0.00560194 0.00175555)
(0.0883924 0.00671455 0.00272947)
(0.0855185 0.00702051 0.00389657)
(0.0890657 -0.00127293 0.000171352)
(0.0902264 -0.000229202 0.000414599)
(0.0911132 0.000773376 0.000802936)
(0.0914892 0.00173999 0.0014345)
(0.0908931 0.0025583 0.00242416)
(0.0886546 0.00285544 0.00383587)
(0.0843828 0.00173427 0.0054107)
(0.0105659 0.00568206 8.23569e-05)
(0.0104458 0.00633589 0.000111396)
(0.00999927 0.00741479 0.000146394)
(0.0092991 0.00890052 0.000219351)
(0.00838058 0.0107394 0.000308245)
(0.00730962 0.0128154 0.000405296)
(0.00618937 0.0149266 0.000498866)
(0.0111427 0.00545657 0.000120735)
(0.0114255 0.00636053 0.000179736)
(0.0113871 0.00767448 0.000299419)
(0.0110448 0.00936587 0.00048201)
(0.0103822 0.0113604 0.000729622)
(0.00939607 0.0135197 0.00103972)
(0.00811371 0.0156188 0.0013877)
(0.0119931 0.00475022 0.000160717)
(0.0126637 0.00591432 0.000295661)
(0.0130046 0.00745778 0.000518459)
(0.012985 0.00935298 0.000855328)
(0.0125344 0.0115288 0.0013314)
(0.011568 0.0138323 0.00195272)
(0.0100328 0.0160035 0.00267783)
(0.0131072 0.00363988 0.00023414)
(0.0141331 0.00502546 0.0004589)
(0.0148257 0.00674687 0.000824648)
(0.0151159 0.00880277 0.00138999)
(0.0148615 0.0111346 0.00221597)
(0.0138708 0.0135747 0.00333446)
(0.0119863 0.0158001 0.00468498)
(0.0144506 0.00216993 0.000317704)
(0.0157707 0.00369734 0.000667171)
(0.0167819 0.00549737 0.00123416)
(0.0173728 0.00760202 0.00213144)
(0.0173063 0.00997123 0.00349072)
(0.0162334 0.0124097 0.00540771)
(0.0138421 0.0144617 0.0078047)
(0.0159431 0.000426447 0.00040173)
(0.0174605 0.00196193 0.000914169)
(0.0187304 0.00367003 0.00174525)
(0.0195898 0.00561505 0.00309717)
(0.0196692 0.00776565 0.0052287)
(0.018361 0.0098503 0.00837043)
(0.0150619 0.0110383 0.0124326)
(0.0174399 -0.00144802 0.000472836)
(0.0190143 -0.00010115 0.00117652)
(0.0204351 0.00127224 0.00231989)
(0.0214684 0.00275432 0.00423498)
(0.0215413 0.00430471 0.00737725)
(0.0195037 0.0054858 0.0122039)
(0.0139442 0.00449664 0.0184232)
(0.00421051 0.00579596 7.498e-05)
(0.00409236 0.00649319 0.000110562)
(0.00367543 0.00765652 0.000183237)
(0.00299321 0.00928004 0.000288611)
(0.00208139 0.0113234 0.000419476)
(0.00100446 0.0136772 0.000567279)
(-0.000138498 0.0161249 0.000715214)
(0.00482474 0.00556496 0.000116716)
(0.00515955 0.00654993 0.000214583)
(0.00519403 0.00798698 0.000386861)
(0.00492915 0.0098649 0.000645562)
(0.00434511 0.0121317 0.00100444)
(0.00341824 0.0146574 0.00146393)
(0.00214189 0.0171972 0.0019926)
(0.00574023 0.0048795 0.000187929)
(0.00651439 0.00615354 0.000372713)
(0.0069904 0.00786755 0.000683546)
(0.00713798 0.0100308 0.00116353)
(0.0068739 0.0126092 0.00185704)
(0.00606988 0.0154751 0.00278604)
(0.00459074 0.0183484 0.00390627)
(0.00695616 0.00377588 0.000283243)
(0.00814762 0.0053127 0.000591749)
(0.0090713 0.00727464 0.00110573)
(0.00967082 0.00971931 0.00191781)
(0.00978942 0.0126635 0.0031363)
(0.00915738 0.0160089 0.00484651)
(0.00744151 0.0194235 0.00701832)
(0.00844718 0.00229786 0.00039268)
(0.0100131 0.0040268 0.000876372)
(0.011397 0.00614911 0.00167837)
(0.0125268 0.00879735 0.00298103)
(0.0131635 0.0120757 0.00502657)
(0.0128298 0.01595 0.00807053)
(0.0108506 0.0199952 0.0121974)
(0.0101379 0.000530292 0.000504294)
(0.0119989 0.00231152 0.00121813)
(0.0138419 0.00441697 0.0024023)
(0.0155974 0.00706769 0.00439418)
(0.016942 0.0104784 0.00770303)
(0.0170761 0.014694 0.0129949)
(0.014683 0.018903 0.0208772)
(0.0118743 -0.00138677 0.000599909)
(0.0138998 0.000222945 0.00158572)
(0.0161532 0.00202771 0.00322928)
(0.0185883 0.00432401 0.00611177)
(0.0207894 0.00744711 0.0112245)
(0.0212482 0.0115745 0.0202313)
(0.016313 0.014091 0.0350558)
(0.0788548 0.0137505 0.000196509)
(0.0781196 0.0147575 0.000211661)
(0.0776006 0.0151529 0.000213082)
(0.0773534 0.0148682 0.000197442)
(0.077425 0.0139386 0.000164277)
(0.0778401 0.0125029 0.000117805)
(0.079992 0.0140559 0.000585748)
(0.0787056 0.0148625 0.00066535)
(0.0775275 0.0150113 0.000697745)
(0.0766115 0.0144468 0.000673062)
(0.0761114 0.0132177 0.000589997)
(0.0761547 0.01149 0.00045953)
(0.0809805 0.0139603 0.00114075)
(0.0790751 0.01456 0.00131093)
(0.0771849 0.014446 0.00138462)
(0.0755598 0.0135768 0.00134217)
(0.0744681 0.0120076 0.00117853)
(0.0741673 0.00992563 0.000911132)
(0.0817836 0.0130855 0.00198857)
(0.0791913 0.0133733 0.00229847)
(0.0765443 0.0129338 0.00243393)
(0.0741731 0.011746 0.00236127)
(0.0724603 0.00985237 0.00206484)
(0.0718347 0.00742965 0.0015617)
(0.0822187 0.0107614 0.00325383)
(0.0789233 0.0104542 0.00376579)
(0.0755576 0.00955298 0.00398816)
(0.0724784 0.00806766 0.0038699)
(0.0701518 0.00599422 0.00336965)
(0.0692244 0.00342693 0.00247619)
(0.0818337 0.00598546 0.00493001)
(0.0779828 0.00452227 0.00566171)
(0.0741577 0.00293181 0.00597292)
(0.0706144 0.00123812 0.00579493)
(0.0678197 -0.000648386 0.00503323)
(0.0666546 -0.00280264 0.00357294)
(0.0797175 -0.00179805 0.00623015)
(0.0758687 -0.00506507 0.00686938)
(0.0722733 -0.00751746 0.00713461)
(0.0688983 -0.00923138 0.00688949)
(0.066112 -0.0103924 0.00595086)
(0.0649633 -0.011224 0.00398866)
(0.00513747 0.016787 0.000575848)
(0.00425416 0.0180866 0.000624834)
(0.00361616 0.018609 0.000632366)
(0.00329276 0.0182635 0.000588822)
(0.00334623 0.0170913 0.000493015)
(0.00381554 0.0152677 0.000357188)
(0.00661316 0.0173631 0.00172037)
(0.00503263 0.0184584 0.00196532)
(0.00355191 0.0187029 0.00206833)
(0.00236734 0.0180161 0.00200009)
(0.00167909 0.0164506 0.00175658)
(0.00166529 0.0142135 0.00136946)
(0.00797704 0.0177049 0.00339185)
(0.00559401 0.0186328 0.00392351)
(0.00317393 0.0186003 0.00415946)
(0.0010404 0.0175359 0.00404162)
(-0.000456348 0.0154905 0.00355428)
(-0.000952612 0.0126896 0.00274582)
(0.00924236 0.0173841 0.00604251)
(0.00592802 0.0180576 0.00704506)
(0.0024551 0.0176894 0.00749352)
(-0.000742364 0.0162247 0.00729187)
(-0.00316723 0.0136779 0.0063909)
(-0.00419789 0.0102284 0.00482688)
(0.0102342 0.0154868 0.0102478)
(0.00589915 0.0155446 0.0120073)
(0.00134097 0.0146631 0.0127906)
(-0.00297108 0.012821 0.0124672)
(-0.00645244 0.00993676 0.0109059)
(-0.00814893 0.00599134 0.00801375)
(0.0103219 0.00996532 0.0165597)
(0.00510326 0.00838636 0.019372)
(-0.00026878 0.00656923 0.0205999)
(-0.00546862 0.00446229 0.0201355)
(-0.00999573 0.00182247 0.017678)
(-0.0125834 -0.00175469 0.0126509)
(0.00755477 -0.00218791 0.0227973)
(0.00249913 -0.00726766 0.0260184)
(-0.00257614 -0.0106413 0.0273927)
(-0.00770274 -0.0127834 0.0268184)
(-0.0126392 -0.0141007 0.0237458)
(-0.0160656 -0.0152071 0.0165307)
(-0.00122935 0.0183278 0.00084178)
(-0.00216719 0.0198897 0.000925329)
(-0.00287262 0.0205425 0.000945062)
(-0.00326736 0.0201731 0.000887658)
(-0.00327438 0.018822 0.000751715)
(-0.00283407 0.0166909 0.000554726)
(0.000560868 0.0193866 0.00251094)
(-0.00118661 0.0208179 0.00289862)
(-0.00288897 0.0212199 0.00307035)
(-0.00431431 0.0204794 0.00298248)
(-0.00522065 0.0186395 0.00262848)
(-0.00536885 0.0159324 0.0020533)
(0.00239141 0.0207748 0.00504903)
(-0.000333879 0.022236 0.0059088)
(-0.00321119 0.0224441 0.00630433)
(-0.00584784 0.0212846 0.00615106)
(-0.00782128 0.018778 0.0054239)
(-0.00863562 0.0151508 0.00418642)
(0.00444834 0.0222693 0.00932994)
(0.000482686 0.0238317 0.0110428)
(-0.00384037 0.0238567 0.0118308)
(-0.0079804 0.0222486 0.0115684)
(-0.0113543 0.0189437 0.0101775)
(-0.0130902 0.0140107 0.00767248)
(0.00679786 0.0231972 0.0168837)
(0.00125284 0.0246425 0.020194)
(-0.0047944 0.0243543 0.021698)
(-0.0107608 0.0223375 0.0212915)
(-0.0160586 0.0183383 0.0187646)
(-0.0193614 0.0118564 0.0137944)
(0.00906476 0.0202142 0.0308911)
(0.0016325 0.0201182 0.0372121)
(-0.00613986 0.0188934 0.0399541)
(-0.0139804 0.0166519 0.0394453)
(-0.0218024 0.012873 0.0352102)
(-0.0281909 0.00587196 0.0255949)
(0.00768216 -0.000130197 0.0527235)
(-0.000192346 -0.00722731 0.0629537)
(-0.00812524 -0.0111805 0.067175)
(-0.0164063 -0.0133658 0.0668181)
(-0.0261155 -0.0144336 0.0611447)
(-0.0374576 -0.0164776 0.0450436)
(0.0785746 0.0107879 6.82765e-05)
(0.0795333 0.00905332 2.88337e-05)
(0.0805736 0.00750059 4.59108e-06)
(0.0815603 0.00624752 -6.01611e-06)
(0.0823949 0.00534646 -6.81911e-06)
(0.0830044 0.00481159 3.32355e-07)
(0.0833887 0.00464065 3.32351e-05)
(0.0767827 0.00954491 0.000310637)
(0.0778791 0.00771187 0.000184849)
(0.0792131 0.00620171 9.80336e-05)
(0.0805645 0.00509872 4.68889e-05)
(0.0817818 0.00441093 2.21876e-05)
(0.0827764 0.00411558 1.56922e-05)
(0.0835022 0.00419869 2.81179e-05)
(0.0747965 0.00768758 0.000599614)
(0.0761901 0.0057521 0.000346565)
(0.0779605 0.00433231 0.000179688)
(0.0797695 0.00344659 8.45612e-05)
(0.0814117 0.00303325 3.87113e-05)
(0.0827922 0.00301919 2.48145e-05)
(0.0838814 0.00335491 3.36047e-05)
(0.0726092 0.00490943 0.000959522)
(0.0745239 0.00297377 0.000507376)
(0.0769076 0.00179529 0.000236035)
(0.0792655 0.00126921 9.56949e-05)
(0.0813544 0.0012351 3.57275e-05)
(0.0830981 0.00156477 2.29357e-05)
(0.0845025 0.00218259 4.13571e-05)
(0.0703408 0.00081355 0.00135131)
(0.073076 -0.000816383 0.000605955)
(0.0762559 -0.00144662 0.00021957)
(0.0792093 -0.00138339 5.08546e-05)
(0.0817073 -0.000899309 -3.05507e-06)
(0.0837397 -0.000164302 1.61774e-06)
(0.0853757 0.000742439 4.20374e-05)
(0.0683666 -0.00491314 0.00156233)
(0.0722639 -0.00560536 0.00047061)
(0.0763407 -0.00521742 2.94239e-05)
(0.0798128 -0.00429286 -0.000101259)
(0.0825735 -0.00316885 -0.000101582)
(0.0847398 -0.00200479 -4.99983e-05)
(0.086469 -0.000847662 3.03852e-05)
(0.0675427 -0.0117124 0.000915222)
(0.0727731 -0.0106616 -0.000260775)
(0.0775687 -0.00886722 -0.000491498)
(0.0812579 -0.00696465 -0.000420657)
(0.0839954 -0.00521999 -0.000280561)
(0.0860609 -0.00370772 -0.00013894)
(0.0876973 -0.00241066 2.54579e-06)
(0.00468086 0.0130894 0.000211351)
(0.00582568 0.0109053 9.47642e-05)
(0.00706896 0.0089711 2.21726e-05)
(0.00824312 0.00742507 -1.15878e-05)
(0.00923092 0.00632118 -1.82658e-05)
(0.00995941 0.00566813 -7.05163e-06)
(0.0103907 0.00545794 3.70766e-05)
(0.00240385 0.0116824 0.000924816)
(0.0037456 0.00932963 0.000550445)
(0.00537716 0.00742398 0.000292552)
(0.00701626 0.0060517 0.000139709)
(0.00847994 0.00520467 6.34353e-05)
(0.00967305 0.004843 3.82926e-05)
(0.0105544 0.00493342 5.56647e-05)
(-0.000203017 0.0096273 0.00179488)
(0.00156728 0.00704358 0.00103078)
(0.00379104 0.00520223 0.000531572)
(0.00602382 0.00407945 0.000247835)
(0.00802223 0.00356296 0.00010972)
(0.00968818 0.00354389 6.43171e-05)
(0.0110043 0.00394983 8.33103e-05)
(-0.0032421 0.00648109 0.00291994)
(-0.00067944 0.00373342 0.00152249)
(0.00241305 0.00213953 0.000700356)
(0.005377 0.00145244 0.000279445)
(0.00794438 0.00140571 9.91402e-05)
(0.0100599 0.0018114 5.74222e-05)
(0.0117607 0.00256796 0.000105713)
(-0.00669737 0.00154694 0.00422788)
(-0.00277403 -0.000989145 0.00184453)
(0.00151012 -0.00189338 0.000654922)
(0.00529001 -0.00180963 0.000145728)
(0.0083812 -0.00118426 -1.66658e-05)
(0.0108504 -0.000260612 -6.75481e-06)
(0.0128328 0.000861515 0.000106122)
(-0.0102167 -0.00616406 0.00512851)
(-0.00411793 -0.00740327 0.00144783)
(0.00159293 -0.00679768 7.51887e-05)
(0.00608618 -0.00548096 -0.000312954)
(0.00949341 -0.00397564 -0.0003104)
(0.0121057 -0.00247969 -0.000159955)
(0.0141913 -0.00102735 7.0262e-05)
(-0.0123 -0.0169442 0.00300269)
(-0.00339579 -0.0148378 -0.00102743)
(0.00343446 -0.01178 -0.00159085)
(0.00811234 -0.00892628 -0.00129812)
(0.0113825 -0.00651669 -0.000848948)
(0.0137987 -0.00453488 -0.000423697)
(0.015739 -0.00288504 -1.24363e-05)
(-0.0019486 0.0141429 0.000340516)
(-0.000745593 0.0116263 0.0001682)
(0.00056285 0.00943919 5.89297e-05)
(0.0017903 0.00772009 4.30956e-06)
(0.00281482 0.00650784 -1.29381e-05)
(0.00357165 0.00579492 -7.38455e-06)
(0.0040338 0.00556222 1.9582e-05)
(-0.00461544 0.0128379 0.00138555)
(-0.00313754 0.0100317 0.000826268)
(-0.00134492 0.00782584 0.000442268)
(0.000428312 0.00627612 0.00021294)
(0.00198857 0.0053351 9.43006e-05)
(0.00324982 0.00493431 4.87435e-05)
(0.0041902 0.00502023 5.60373e-05)
(-0.00784926 0.0110565 0.00270798)
(-0.00575762 0.00775555 0.00154024)
(-0.00319277 0.00551917 0.000788623)
(-0.000700435 0.0042079 0.000363202)
(0.00147302 0.00361809 0.000152869)
(0.0032568 0.00358832 7.66645e-05)
(0.00466448 0.00402214 9.17941e-05)
(-0.0120104 0.00821537 0.00452575)
(-0.00867474 0.00432004 0.00230807)
(-0.00489253 0.00224249 0.00104459)
(-0.00147276 0.00139784 0.000407181)
(0.00136899 0.00133451 0.000131675)
(0.00365388 0.00178046 5.88338e-05)
(0.0054814 0.00260574 0.000114253)
(-0.0175363 0.00316506 0.00689869)
(-0.0117294 -0.00103522 0.00287338)
(-0.00611473 -0.0023275 0.000992319)
(-0.00160837 -0.00221999 0.000210901)
(0.00185565 -0.00146616 -4.08892e-05)
(0.00452804 -0.000406794 -3.99848e-05)
(0.00665991 0.00084504 0.000106918)
(-0.0248648 -0.00696916 0.00916266)
(-0.0141575 -0.00946314 0.00231595)
(-0.0060756 -0.00838748 0.000103703)
(-0.000611181 -0.00649911 -0.000480333)
(0.00318222 -0.00456432 -0.000477151)
(0.00596509 -0.00277757 -0.000267177)
(0.00818605 -0.00111555 4.89667e-05)
(-0.0316544 -0.0271068 0.00521947)
(-0.0130739 -0.0213404 -0.00235887)
(-0.00314031 -0.0151958 -0.00269868)
(0.00221603 -0.0107031 -0.00202754)
(0.00557731 -0.00742974 -0.00129057)
(0.00797682 -0.00497875 -0.000657198)
(0.00996778 -0.00304595 -7.4743e-05)
(0.0900658 -0.00280815 0.000186223)
(0.0910855 -0.00211264 0.000493583)
(0.0918614 -0.00161229 0.000983247)
(0.0920675 -0.00130557 0.00179412)
(0.0910268 -0.00129094 0.00308878)
(0.0875659 -0.00190427 0.0049048)
(0.0808533 -0.00408626 0.0063634)
(0.0906983 -0.00411527 0.000186433)
(0.0914223 -0.00392505 0.000539377)
(0.0919203 -0.00410115 0.00109844)
(0.0918104 -0.00467272 0.00203914)
(0.0902931 -0.00572906 0.00358954)
(0.0858485 -0.00744977 0.00584934)
(0.0772741 -0.0101174 0.00757262)
(0.090823 -0.00502376 0.000167833)
(0.0910996 -0.00540353 0.00052952)
(0.0911137 -0.00629054 0.00108284)
(0.0904393 -0.007743 0.00198398)
(0.0882473 -0.00982348 0.00339779)
(0.0831597 -0.0125192 0.00529564)
(0.0744525 -0.0154422 0.00641323)
(0.0904131 -0.00540069 0.000133774)
(0.0901555 -0.00630189 0.000471593)
(0.0895808 -0.0077786 0.000968244)
(0.088277 -0.00989015 0.00175246)
(0.0855136 -0.0126298 0.00294348)
(0.0802078 -0.0157869 0.00446513)
(0.0721073 -0.018693 0.00519875)
(0.0895343 -0.00518062 8.83794e-05)
(0.0887217 -0.00646853 0.000374376)
(0.0875254 -0.00832999 0.000773105)
(0.0855877 -0.0108325 0.00137914)
(0.0823476 -0.01395 0.00227079)
(0.0770768 -0.0174069 0.00336321)
(0.0698977 -0.0204318 0.00371648)
(0.088328 -0.0043687 3.72214e-05)
(0.0870061 -0.00583793 0.000249531)
(0.0852167 -0.00779275 0.00051404)
(0.0826567 -0.010304 0.000872349)
(0.0789365 -0.0133623 0.00132766)
(0.0737071 -0.0167431 0.00173553)
(0.0675666 -0.0197318 0.00130123)
(0.018727 -0.00326806 0.000516804)
(0.0201808 -0.00234773 0.00141051)
(0.0215859 -0.0015954 0.00286745)
(0.0226221 -0.000932639 0.00538078)
(0.0223988 -0.000362035 0.00967625)
(0.0185358 -0.000233046 0.0165817)
(0.00728144 -0.00251165 0.0238607)
(0.0195547 -0.00482974 0.000521111)
(0.0206869 -0.00455457 0.00155204)
(0.0218501 -0.00469865 0.00323101)
(0.022701 -0.00527885 0.00620429)
(0.0222319 -0.00639621 0.0115606)
(0.0172638 -0.00831368 0.0212112)
(0.00176712 -0.0116207 0.0329187)
(0.0197294 -0.0059258 0.000473599)
(0.0203119 -0.00638515 0.00153295)
(0.0208614 -0.00748451 0.00319777)
(0.0209227 -0.00933801 0.00603978)
(0.0193452 -0.0121248 0.0108636)
(0.0131297 -0.0159888 0.0184648)
(-0.00208912 -0.0202203 0.0255072)
(0.019222 -0.00639271 0.000383103)
(0.0191282 -0.00752094 0.00137611)
(0.018897 -0.00940023 0.00287757)
(0.0180581 -0.0121608 0.00536476)
(0.015556 -0.0158788 0.00945677)
(0.00892135 -0.0203498 0.0156322)
(-0.00491091 -0.0243344 0.0207414)
(0.0181163 -0.00615182 0.00025971)
(0.0173043 -0.0077807 0.00110384)
(0.0162213 -0.0101854 0.0023188)
(0.0144419 -0.013531 0.00426912)
(0.0111344 -0.0179 0.00742128)
(0.00445974 -0.0230241 0.0121713)
(-0.00767174 -0.0275407 0.0160261)
(0.016589 -0.00520338 0.000117908)
(0.0150946 -0.00707134 0.000746518)
(0.0131465 -0.00962916 0.00155962)
(0.0103414 -0.0130791 0.00273997)
(0.0060423 -0.0176065 0.004461)
(-0.000932101 -0.0231963 0.0067683)
(-0.0113578 -0.0287687 0.00760441)
(0.0134068 -0.00326563 0.000661697)
(0.0154133 -0.00212068 0.00192064)
(0.0179429 -0.000998637 0.00403778)
(0.0210169 0.000415969 0.00792383)
(0.0241903 0.00264295 0.0154024)
(0.0237056 0.00677048 0.030773)
(0.00261144 0.0109769 0.0568492)
(0.0144203 -0.0048995 0.000675801)
(0.0161668 -0.00451128 0.00213693)
(0.0186899 -0.00451349 0.00460336)
(0.0222294 -0.00486181 0.00929964)
(0.0271518 -0.00557803 0.0191745)
(0.0296055 -0.00683284 0.0438842)
(-0.00218834 -0.00890634 0.0996077)
(0.0146579 -0.00606588 0.000627359)
(0.0157993 -0.00655226 0.00214149)
(0.017592 -0.00777652 0.00460895)
(0.0199462 -0.00997538 0.00913243)
(0.0221306 -0.0136857 0.0178894)
(0.019145 -0.0202158 0.0359179)
(-0.00996443 -0.0286408 0.0658139)
(0.0140968 -0.00658585 0.000524058)
(0.0144561 -0.00786336 0.00195814)
(0.0152659 -0.010054 0.00421578)
(0.0163098 -0.0134342 0.00824361)
(0.0167442 -0.0183277 0.0158171)
(0.0121764 -0.024788 0.0307013)
(-0.0132052 -0.0297654 0.0543798)
(0.0128327 -0.00637657 0.00037372)
(0.0123311 -0.00825803 0.00160543)
(0.0120205 -0.0111389 0.00346513)
(0.0116645 -0.0153921 0.00671561)
(0.0106489 -0.0214257 0.0128291)
(0.00575355 -0.029243 0.0252856)
(-0.016046 -0.0353109 0.0465893)
(0.0110631 -0.00542565 0.000192151)
(0.00969369 -0.00760763 0.00111725)
(0.00813123 -0.0107496 0.00238636)
(0.00601558 -0.0153644 0.00443876)
(0.00276476 -0.0222708 0.00810388)
(-0.0037675 -0.0326223 0.0157912)
(-0.0228494 -0.044952 0.0297794)
(0.0750202 -0.00894772 0.00442819)
(0.0722616 -0.0130678 0.00377229)
(0.0699937 -0.0157757 0.00353345)
(0.067744 -0.0172039 0.00321069)
(0.0658373 -0.0175668 0.00251498)
(0.0653628 -0.0171395 0.00100641)
(0.0706616 -0.0137569 0.00363866)
(0.0690262 -0.0168402 0.00210184)
(0.0681374 -0.018801 0.00153345)
(0.0671129 -0.0195857 0.00113539)
(0.0661975 -0.0193185 0.000523724)
(0.0664735 -0.0182458 -0.000829171)
(0.0682057 -0.0175756 0.00280647)
(0.0671998 -0.0192696 0.00121477)
(0.0672461 -0.0201785 0.000576183)
(0.0672287 -0.0201184 0.000166415)
(0.0671948 -0.0191124 -0.000402081)
(0.0681214 -0.0173529 -0.00169724)
(0.0667341 -0.0202396 0.00196282)
(0.0664049 -0.0210606 0.000471525)
(0.0672863 -0.021078 -0.000142205)
(0.0681812 -0.0201821 -0.0005139)
(0.0689811 -0.01836 -0.00100578)
(0.0704868 -0.0157596 -0.00217702)
(0.065739 -0.0218469 0.000709995)
(0.0663432 -0.0220614 -0.000668021)
(0.0681223 -0.0213637 -0.00121341)
(0.0699489 -0.0197524 -0.00149412)
(0.0716355 -0.0171738 -0.00182303)
(0.0737346 -0.0136974 -0.00269109)
(0.065006 -0.0209848 -0.00184824)
(0.0668707 -0.0206192 -0.00310864)
(0.0695933 -0.0193645 -0.00352615)
(0.0723733 -0.0173216 -0.00362914)
(0.0750538 -0.0143583 -0.00362734)
(0.0778786 -0.0104107 -0.00382473)
(-0.00160444 -0.0116735 0.0127601)
(-0.00337354 -0.0183648 0.0106317)
(-0.00569825 -0.0222727 0.0102019)
(-0.00874591 -0.0240756 0.00947704)
(-0.0120839 -0.0242151 0.00771748)
(-0.014527 -0.0233207 0.00315629)
(-0.00922203 -0.0163738 0.0103413)
(-0.00826715 -0.0206997 0.00506977)
(-0.00823063 -0.0233392 0.00375013)
(-0.00946131 -0.0243317 0.00284905)
(-0.0114252 -0.0239146 0.00140213)
(-0.0130108 -0.0226134 -0.00264707)
(-0.0119564 -0.0208473 0.0078005)
(-0.0105102 -0.0226262 0.00285326)
(-0.00934232 -0.02371 0.00133981)
(-0.00929707 -0.0236153 0.000407004)
(-0.0101723 -0.0223487 -0.000932068)
(-0.0110627 -0.02028 -0.00488542)
(-0.0132576 -0.0243399 0.0056485)
(-0.0113156 -0.024942 0.00110449)
(-0.00923649 -0.024861 -0.000353917)
(-0.00808354 -0.0236996 -0.00119883)
(-0.00791011 -0.0213729 -0.00235563)
(-0.00807307 -0.0180936 -0.0060037)
(-0.0141115 -0.0278341 0.00243183)
(-0.0112163 -0.0277212 -0.00174208)
(-0.0081164 -0.0267146 -0.00304263)
(-0.00579241 -0.0245915 -0.00366966)
(-0.00438934 -0.0211464 -0.0044251)
(-0.00357315 -0.0163285 -0.00724414)
(-0.0150525 -0.0299013 -0.00594455)
(-0.0103853 -0.0290141 -0.00940368)
(-0.00612625 -0.0272059 -0.0103431)
(-0.00250037 -0.0244001 -0.0104837)
(0.000526346 -0.0201626 -0.0103138)
(0.00298433 -0.0140283 -0.0110569)
(-0.0135437 -0.00337835 0.0130912)
(-0.00956431 -0.0129703 0.00984546)
(-0.0109849 -0.0176799 0.00970649)
(-0.0143845 -0.0193978 0.00929354)
(-0.0193589 -0.0187119 0.00788714)
(-0.0273033 -0.0173931 0.00266178)
(-0.0280183 -0.00285804 0.0113714)
(-0.0158445 -0.00717116 0.0034451)
(-0.013639 -0.00993865 0.00241199)
(-0.0147779 -0.0108968 0.00190216)
(-0.0180821 -0.0103785 0.000919221)
(-0.0255523 -0.0100098 -0.00380928)
(-0.0276535 -0.00659727 0.00811957)
(-0.0177697 -0.00662648 0.00182893)
(-0.0147178 -0.00758367 0.000770055)
(-0.0145955 -0.00747822 0.000241068)
(-0.0168881 -0.00630321 -0.000673434)
(-0.0240797 -0.00532973 -0.00549417)
(-0.0272237 -0.00991019 0.00620411)
(-0.0182467 -0.00893442 0.000788299)
(-0.0145643 -0.00871161 -0.00021177)
(-0.0134208 -0.00756568 -0.000690189)
(-0.0146955 -0.00533231 -0.00149918)
(-0.0211803 -0.00288108 -0.00614333)
(-0.027008 -0.0163101 0.00363102)
(-0.0179203 -0.0145829 -0.0011501)
(-0.0134262 -0.0134146 -0.00202916)
(-0.0111451 -0.0112341 -0.00237334)
(-0.0110362 -0.007652 -0.00292064)
(-0.0159864 -0.00287529 -0.00687817)
(-0.0279562 -0.0302207 -0.00686903)
(-0.0167829 -0.025933 -0.00975616)
(-0.0113496 -0.0233627 -0.0100412)
(-0.00759712 -0.0201259 -0.00996545)
(-0.00516871 -0.0149728 -0.00966606)
(-0.00640778 -0.00685665 -0.0112201)
(0.0689537 -0.0161521 -0.00178104)
(0.0751153 -0.0138369 -0.0019487)
(0.0800387 -0.0111456 -0.00140951)
(0.0834602 -0.00867335 -0.000900201)
(0.0858305 -0.00661578 -0.000524542)
(0.0875491 -0.0049905 -0.000255437)
(0.0889038 -0.00374517 -3.89775e-05)
(0.0709372 -0.0166562 -0.00359462)
(0.0777966 -0.0141606 -0.00321451)
(0.0827347 -0.0114619 -0.00216448)
(0.085788 -0.00904804 -0.00131875)
(0.0876783 -0.00710577 -0.000745546)
(0.0889315 -0.00566268 -0.000364994)
(0.0898796 -0.00468227 -8.36647e-05)
(0.0731369 -0.0151952 -0.00449774)
(0.0803282 -0.0127015 -0.00390704)
(0.0851539 -0.0103031 -0.00261348)
(0.0878167 -0.00827536 -0.00158464)
(0.0892159 -0.00672891 -0.000893863)
(0.0899726 -0.00568191 -0.000443755)
(0.0904512 -0.00511835 -0.000123244)
(0.0756858 -0.0128415 -0.00484492)
(0.0827074 -0.0102509 -0.00415671)
(0.0871635 -0.00819221 -0.00278159)
(0.0893625 -0.0066678 -0.00169024)
(0.0902717 -0.00564659 -0.000957441)
(0.090542 -0.00509926 -0.000482939)
(0.0905378 -0.00501316 -0.000152668)
(0.0787417 -0.00987369 -0.00488357)
(0.084996 -0.00715184 -0.00408598)
(0.0887397 -0.005465 -0.00272138)
(0.0903626 -0.00449578 -0.00165495)
(0.0907844 -0.00404372 -0.000941948)
(0.0906061 -0.00401376 -0.000483044)
(0.0901497 -0.00438349 -0.000170174)
(0.0823249 -0.00602827 -0.00482515)
(0.0871339 -0.00346591 -0.00378162)
(0.0898221 -0.00232828 -0.00247999)
(0.0907841 -0.00198683 -0.00150419)
(0.0907538 -0.00210974 -0.000860134)
(0.0902023 -0.00255681 -0.000449136)
(0.0893709 -0.00329851 -0.000175399)
(-0.00912404 -0.0231511 -0.00897307)
(0.00110525 -0.0190689 -0.00738753)
(0.00751273 -0.0146746 -0.0046893)
(0.0113504 -0.0110225 -0.0028155)
(0.0138849 -0.00819066 -0.00159099)
(0.0157374 -0.00605565 -0.000769608)
(0.0172781 -0.0044626 -0.000134016)
(-0.00619963 -0.0219735 -0.0154476)
(0.00528581 -0.0184707 -0.0116762)
(0.0114999 -0.0145865 -0.00710789)
(0.0145983 -0.0112529 -0.00410588)
(0.0163495 -0.00867115 -0.00225369)
(0.0175268 -0.00680557 -0.00109131)
(0.0185265 -0.00555704 -0.000262246)
(-0.0034432 -0.0188312 -0.0182405)
(0.00869533 -0.0157683 -0.013838)
(0.0147506 -0.0126569 -0.00848153)
(0.0172678 -0.0100437 -0.00490302)
(0.0183324 -0.00807724 -0.00269012)
(0.0188515 -0.00675984 -0.00131851)
(0.0192539 -0.00605241 -0.0003728)
(-0.000243371 -0.0152321 -0.0190566)
(0.0116558 -0.0121517 -0.0144936)
(0.0172444 -0.0096879 -0.00894697)
(0.0191799 -0.00786824 -0.0052005)
(0.0196336 -0.00665117 -0.00286885)
(0.0195516 -0.00600164 -0.00142672)
(0.0193606 -0.00590785 -0.000451818)
(0.00387862 -0.0113638 -0.0186712)
(0.0144299 -0.00797955 -0.0140394)
(0.0190538 -0.00609389 -0.00867418)
(0.0203065 -0.00507527 -0.00506082)
(0.0201992 -0.00463363 -0.00280848)
(0.0195949 -0.00466047 -0.0014185)
(0.0188629 -0.0051477 -0.000495319)
(0.00941503 -0.0067564 -0.0175664)
(0.017107 -0.00324878 -0.0126878)
(0.0201673 -0.00210306 -0.00779487)
(0.020642 -0.00194111 -0.00455891)
(0.0200486 -0.00225838 -0.00254748)
(0.0190376 -0.00289763 -0.00130973)
(0.0178692 -0.00385441 -0.000503463)
(-0.0190604 -0.0353777 -0.0314339)
(-0.000969105 -0.0268026 -0.016502)
(0.00460769 -0.0186316 -0.00835077)
(0.0071594 -0.0130237 -0.00451525)
(0.00890696 -0.00920097 -0.00243202)
(0.0103489 -0.00655078 -0.00116977)
(0.011778 -0.00466673 -0.00025155)
(-0.0142236 -0.027181 -0.045016)
(0.00633371 -0.0230216 -0.024486)
(0.0107774 -0.017294 -0.0124273)
(0.0116541 -0.0127534 -0.0065473)
(0.0120509 -0.00947776 -0.00342966)
(0.0125111 -0.00722745 -0.00163789)
(0.0132529 -0.00576242 -0.000430881)
(-0.0113773 -0.0199762 -0.0495094)
(0.0107599 -0.0176986 -0.0279905)
(0.0149937 -0.0139877 -0.0145735)
(0.0149827 -0.0108573 -0.00774878)
(0.0144335 -0.008554 -0.00406711)
(0.0140643 -0.00703923 -0.00195806)
(0.014106 -0.00622872 -0.000576398)
(-0.00806621 -0.0141283 -0.049989)
(0.0139047 -0.0122099 -0.0287253)
(0.0177246 -0.00985934 -0.0151823)
(0.0170947 -0.00802927 -0.0081531)
(0.0158695 -0.00678357 -0.00430838)
(0.0148364 -0.00611816 -0.00209791)
(0.0142263 -0.00603809 -0.000670913)
(-0.00327624 -0.0087717 -0.047471)
(0.0164419 -0.00655623 -0.0273276)
(0.0192729 -0.00530017 -0.0145346)
(0.0180651 -0.00466959 -0.00786407)
(0.0163451 -0.00445431 -0.00418563)
(0.0148098 -0.00462132 -0.00206427)
(0.0136383 -0.00522434 -0.000712397)
(0.00484163 -0.00306173 -0.0414803)
(0.018608 -0.000495607 -0.0237796)
(0.0196996 -0.000511914 -0.0127839)
(0.0179466 -0.00107845 -0.00698757)
(0.0159182 -0.00182674 -0.00375704)
(0.0140664 -0.00272642 -0.00188286)
(0.012471 -0.00387322 -0.000704343)
(0.0869949 -0.00305502 -9.2858e-06)
(0.0852976 -0.00446521 0.0001232)
(0.0830593 -0.0061625 0.000244359)
(0.0800178 -0.00815687 0.000327651)
(0.0759059 -0.0103566 0.000250529)
(0.0706895 -0.0124577 -0.000335295)
(0.065558 -0.0137533 -0.00227437)
(0.0857448 -0.0014276 -3.84114e-05)
(0.0838986 -0.00259015 3.33357e-05)
(0.0815251 -0.00378676 6.35158e-05)
(0.0784624 -0.00493693 7.98235e-06)
(0.0746339 -0.00582829 -0.000253348)
(0.0703003 -0.00604758 -0.000973537)
(0.0666777 -0.00497809 -0.00259618)
(0.0847119 0.000275618 -4.81481e-05)
(0.0829384 -0.000556719 -1.3606e-05)
(0.0807125 -0.00121438 -2.40816e-05)
(0.0779762 -0.00157991 -0.00011543)
(0.0747947 -0.00143391 -0.000366685)
(0.071537 -0.000455077 -0.000913766)
(0.0691544 0.0016602 -0.0019257)
(0.08395 0.00184762 -4.36314e-05)
(0.0824086 0.00134935 -2.87645e-05)
(0.0805019 0.00115428 -5.02516e-05)
(0.0782428 0.00136682 -0.000131151)
(0.0757586 0.00214438 -0.000315643)
(0.0733939 0.0036597 -0.00066725)
(0.0717976 0.00597087 -0.00123873)
(0.083464 0.00314847 -3.10665e-05)
(0.0822451 0.00295409 -2.4921e-05)
(0.08073 0.00312017 -4.35457e-05)
(0.0789663 0.00371824 -9.96349e-05)
(0.0770875 0.00483084 -0.00021571)
(0.0753635 0.0065102 -0.00041888)
(0.0742091 0.00868485 -0.000721476)
(0.083239 0.00408716 -1.3273e-05)
(0.0823803 0.00417042 -1.07168e-05)
(0.081266 0.00461979 -2.06066e-05)
(0.0799535 0.00547512 -5.02461e-05)
(0.0785506 0.00676007 -0.000110421)
(0.0772479 0.00844719 -0.000212253)
(0.0763038 0.0104081 -0.000357374)
(0.0832579 0.00465936 2.75553e-05)
(0.0827777 0.00496273 1.56453e-05)
(0.0820347 0.00565534 1.23873e-05)
(0.0811066 0.00670401 8.49249e-06)
(0.0800596 0.00809672 -6.00936e-06)
(0.0790115 0.00975945 -3.59579e-05)
(0.0781207 0.01154 -8.2571e-05)
(0.0148994 -0.00364619 -1.31373e-05)
(0.0128785 -0.00543234 0.000378894)
(0.0102134 -0.00764635 0.000752571)
(0.00646235 -0.0103843 0.00104077)
(0.000996772 -0.0136595 0.000871473)
(-0.0069276 -0.0172153 -0.000905642)
(-0.0165567 -0.0198293 -0.00846536)
(0.0133304 -0.00170839 -9.61092e-05)
(0.0110944 -0.00316336 0.000116202)