/*--------------------------------*- C++ -*----------------------------------*\
  =========                 |
  \\      /  F ield         | OpenFOAM: The Open Source CFD Toolbox
   \\    /   O peration     | Website:  https://openfoam.org
    \\  /    A nd           | Version:  7
     \\/     M anipulation  |
\*---------------------------------------------------------------------------*/
FoamFile
{
    version     2.0;
    format      ascii;
    class       volScalarField;
    location    "5";
    object      p;
}
// * * * * * * * * * * * * * * * * * * * * * * * * * * * * * * * * * * * * * //

dimensions      [0 2 -2 0 0 0 0];

internalField   nonuniform List<scalar> 
7784
(
-7.86589e-12
-7.46166e-05
-0.000173151
-0.000257238
-0.000324134
-0.000376364
-0.000417117
-1.27068e-05
-9.08486e-05
-0.000185839
-0.000265173
-0.000328836
-0.000379053
-0.000418503
-3.2793e-05
-0.000108257
-0.000198183
-0.000273156
-0.000333848
-0.000382078
-0.000420146
-4.87948e-05
-0.000121595
-0.00020795
-0.00027987
-0.000338286
-0.000384842
-0.000421648
-6.05586e-05
-0.000131598
-0.000215586
-0.000285363
-0.000342067
-0.000387343
-0.000423156
-6.89839e-05
-0.000138885
-0.000221303
-0.000289614
-0.000345102
-0.000389447
-0.000424619
-7.47804e-05
-0.000143964
-0.000225385
-0.000292741
-0.000347409
-0.000391119
-0.000425782
-6.87011e-05
-0.000145991
-0.000232348
-0.000299045
-0.000351017
-0.00039275
-0.000426859
-7.8825e-05
-0.000159808
-0.00024276
-0.00030544
-0.000354802
-0.000394887
-0.000427942
-9.33443e-05
-0.000172005
-0.000251108
-0.00031081
-0.00035826
-0.000397052
-0.000429218
-0.000104736
-0.000180968
-0.000257458
-0.000315195
-0.000361254
-0.000399067
-0.000430571
-0.000113408
-0.000188039
-0.000262743
-0.000319006
-0.00036392
-0.000400858
-0.00043175
-0.000119976
-0.00019355
-0.000266995
-0.000322161
-0.000366181
-0.000402403
-0.00043268
-0.000124717
-0.000197609
-0.000270214
-0.000324615
-0.000367983
-0.000403647
-0.00043348
-0.000142013
-0.000208987
-0.000278684
-0.00033215
-0.00037456
-0.000409289
-0.000438355
-0.000149057
-0.000218391
-0.000285492
-0.00033629
-0.000376987
-0.000410588
-0.000438899
-0.000159001
-0.000226663
-0.000291169
-0.000339994
-0.000379381
-0.000412055
-0.000439696
-0.000167069
-0.000233006
-0.000295699
-0.000343149
-0.000381543
-0.000413485
-0.000440578
-0.000173477
-0.000238231
-0.000299615
-0.000345978
-0.000383526
-0.000414819
-0.000441419
-0.000178497
-0.000242444
-0.000302875
-0.000348399
-0.000385262
-0.000416009
-0.000442172
-0.000182221
-0.00024564
-0.000305417
-0.000350338
-0.000386684
-0.000417002
-0.000442817
-0.000449487
-0.000476831
-0.000501293
-0.000524693
-0.000548596
-0.000574601
-0.000450115
-0.000476958
-0.000501096
-0.000524241
-0.000547869
-0.000573486
-0.000450952
-0.000477242
-0.000500992
-0.000523821
-0.000547138
-0.000572394
-0.000451761
-0.000477603
-0.000500975
-0.000523477
-0.00054647
-0.000571361
-0.000452677
-0.000478008
-0.000501006
-0.000523188
-0.00054587
-0.000570418
-0.000453536
-0.000478402
-0.000501063
-0.000522957
-0.00054536
-0.000569612
-0.000454242
-0.000478745
-0.000501128
-0.00052278
-0.000544953
-0.000568964
-0.00045575
-0.000480978
-0.000504272
-0.000526989
-0.00055045
-0.000576068
-0.000456109
-0.000480923
-0.00050395
-0.000526452
-0.000549672
-0.000574948
-0.000456684
-0.000481042
-0.000503738
-0.000525963
-0.000548899
-0.000573836
-0.000457402
-0.000481269
-0.000503625
-0.000525556
-0.000548197
-0.000572798
-0.000458008
-0.000481511
-0.000503553
-0.000525204
-0.000547564
-0.000571852
-0.000458554
-0.000481753
-0.000503518
-0.000524915
-0.000547025
-0.000571042
-0.000459035
-0.000481976
-0.000503507
-0.000524692
-0.000546593
-0.000570389
-0.000463468
-0.000485975
-0.000507086
-0.000527886
-0.000549466
-0.000572919
-0.000463516
-0.00048572
-0.000506631
-0.000527261
-0.000548632
-0.000571842
-0.000463818
-0.000485672
-0.000506321
-0.000526722
-0.000547852
-0.000570763
-0.000464252
-0.000485755
-0.000506126
-0.000526277
-0.000547152
-0.00056977
-0.000464689
-0.000485875
-0.00050598
-0.000525891
-0.000546522
-0.000568868
-0.000465103
-0.000486013
-0.00050588
-0.000525574
-0.000545987
-0.000568094
-0.000465471
-0.000486151
-0.000505817
-0.000525328
-0.000545559
-0.000567469
-0.000604608
-0.000640809
-0.000686149
-0.000742413
-0.000807966
-0.000864675
-0.000830142
-0.000602879
-0.000638542
-0.00068294
-0.000737813
-0.000801938
-0.000861437
-0.000833325
-0.000601336
-0.000636228
-0.000679675
-0.000733225
-0.000795504
-0.000853342
-0.000824623
-0.000599847
-0.000634121
-0.000676701
-0.000729102
-0.000789982
-0.00084643
-0.000816903
-0.000598493
-0.00063224
-0.000674131
-0.000725662
-0.00078555
-0.000841088
-0.000811026
-0.000597343
-0.000630672
-0.00067205
-0.000722974
-0.000782181
-0.00083711
-0.000806669
-0.000596424
-0.000629439
-0.000670451
-0.000720961
-0.000779733
-0.000834278
-0.000803587
-0.000605362
-0.000640132
-0.000681749
-0.00073004
-0.000783137
-0.000830458
-0.000817831
-0.000603842
-0.000638015
-0.000678755
-0.000725693
-0.000777156
-0.000826227
-0.00081877
-0.000602259
-0.000635784
-0.000675683
-0.000721498
-0.00077153
-0.00081949
-0.00081209
-0.000600796
-0.000633768
-0.000672963
-0.000717916
-0.000766956
-0.000814081
-0.000806346
-0.000599475
-0.00063198
-0.000670604
-0.000714883
-0.00076322
-0.00080982
-0.000801873
-0.00059835
-0.000630481
-0.000668667
-0.000712445
-0.000760282
-0.000806495
-0.000798357
-0.000597448
-0.000629296
-0.000667162
-0.000710589
-0.000758087
-0.000804032
-0.00079574
-0.000599506
-0.000630434
-0.000666355
-0.000706485
-0.000748709
-0.000785966
-0.000787166
-0.000598077
-0.000628487
-0.000663691
-0.000702772
-0.000743758
-0.000781721
-0.000785561
-0.000596597
-0.000626467
-0.000660977
-0.000699187
-0.000739097
-0.000776372
-0.000780514
-0.00059524
-0.000624644
-0.000658576
-0.000696126
-0.000735333
-0.000772146
-0.000776316
-0.000594014
-0.000623021
-0.000656475
-0.000693507
-0.000732209
-0.000768727
-0.000772919
-0.000592966
-0.000621651
-0.000654734
-0.000691374
-0.000729706
-0.00076599
-0.00077015
-0.000592122
-0.000620561
-0.000653369
-0.000689732
-0.000727806
-0.000763918
-0.000768029
-7.85916e-05
-0.000147348
-0.000228165
-0.000294924
-0.000349061
-0.000392342
-0.000426638
-8.08972e-05
-0.000149419
-0.000229894
-0.000296304
-0.000350122
-0.000393138
-0.000427201
-8.19842e-05
-0.000150402
-0.000230723
-0.000296973
-0.000350642
-0.000393531
-0.00042748
-8.19839e-05
-0.000150402
-0.000230722
-0.000296973
-0.000350642
-0.00039353
-0.00042748
-8.08962e-05
-0.000149418
-0.000229893
-0.000296304
-0.000350122
-0.000393138
-0.000427201
-7.85898e-05
-0.000147347
-0.000228163
-0.000294923
-0.00034906
-0.000392342
-0.000426638
-0.000127943
-0.000200426
-0.000272502
-0.000326399
-0.000369319
-0.000404589
-0.000434108
-0.000129938
-0.000202195
-0.000273964
-0.000327557
-0.0003702
-0.000405221
-0.000434537
-0.000130891
-0.000203047
-0.000274676
-0.000328127
-0.000370637
-0.000405537
-0.000434754
-0.00013089
-0.000203047
-0.000274676
-0.000328127
-0.000370637
-0.000405537
-0.000434754
-0.000129937
-0.000202194
-0.000273964
-0.000327557
-0.0003702
-0.000405221
-0.000434537
-0.000127941
-0.000200424
-0.000272501
-0.000326398
-0.000369319
-0.00040459
-0.000434109
-0.00018481
-0.00024791
-0.000307266
-0.000351779
-0.000387761
-0.000417766
-0.000443324
-0.000186437
-0.000249358
-0.000308467
-0.000352729
-0.000388481
-0.000418284
-0.000443673
-0.00018722
-0.000250062
-0.000309057
-0.0003532
-0.000388841
-0.000418544
-0.00044385
-0.000187219
-0.000250062
-0.000309057
-0.0003532
-0.000388841
-0.000418544
-0.00044385
-0.000186436
-0.000249358
-0.000308467
-0.000352729
-0.000388481
-0.000418284
-0.000443673
-0.000184809
-0.000247908
-0.000307266
-0.000351779
-0.000387762
-0.000417767
-0.000443325
-0.000454775
-0.000479014
-0.000501187
-0.000522654
-0.000544649
-0.000568479
-0.000455131
-0.000479196
-0.00050123
-0.000522572
-0.000544448
-0.000568157
-0.000455309
-0.000479286
-0.000501252
-0.000522532
-0.000544349
-0.000567997
-0.000455309
-0.000479286
-0.000501252
-0.000522532
-0.000544348
-0.000567997
-0.000455131
-0.000479196
-0.00050123
-0.000522572
-0.000544448
-0.000568156
-0.000454775
-0.000479014
-0.000501187
-0.000522653
-0.000544648
-0.000568477
-0.000459419
-0.000482158
-0.000503509
-0.00052453
-0.000546271
-0.000569899
-0.000459685
-0.000482288
-0.000503516
-0.000524424
-0.000546057
-0.000569574
-0.00045982
-0.000482357
-0.000503521
-0.000524373
-0.000545951
-0.000569412
-0.00045982
-0.000482357
-0.000503521
-0.000524373
-0.000545951
-0.000569412
-0.000459685
-0.000482288
-0.000503516
-0.000524424
-0.000546057
-0.000569573
-0.00045942
-0.000482159
-0.00050351
-0.00052453
-0.00054627
-0.000569898
-0.000465768
-0.00048627
-0.000505781
-0.000525147
-0.000545237
-0.000566999
-0.000465976
-0.000486358
-0.000505761
-0.00052503
-0.000545024
-0.000566686
-0.000466082
-0.000486404
-0.000505753
-0.000524972
-0.000544918
-0.000566529
-0.000466082
-0.000486404
-0.000505753
-0.000524972
-0.000544918
-0.000566529
-0.000465976
-0.000486358
-0.000505761
-0.00052503
-0.000545024
-0.000566685
-0.000465769
-0.000486272
-0.000505782
-0.000525148
-0.000545237
-0.000566998
-0.000595742
-0.000628535
-0.000669299
-0.000719539
-0.000778042
-0.000832357
-0.000801514
-0.000595292
-0.000627944
-0.000668554
-0.000718634
-0.000776981
-0.000831166
-0.000800238
-0.000595068
-0.000627651
-0.000668188
-0.000718193
-0.000776469
-0.000830596
-0.00079963
-0.000595068
-0.000627651
-0.000668187
-0.000718192
-0.000776468
-0.000830594
-0.000799629
-0.00059529
-0.000627941
-0.00066855
-0.00071863
-0.000776977
-0.000831162
-0.000800234
-0.000595739
-0.000628531
-0.000669294
-0.000719534
-0.000778036
-0.00083235
-0.000801507
-0.000596776
-0.000628421
-0.000666068
-0.000709261
-0.000756541
-0.000802313
-0.000793919
-0.000596332
-0.000627847
-0.000665356
-0.000708407
-0.000755557
-0.000801228
-0.000792773
-0.000596111
-0.000627562
-0.000665006
-0.000707989
-0.000755079
-0.000800703
-0.000792219
-0.00059611
-0.000627562
-0.000665005
-0.000707988
-0.000755078
-0.000800701
-0.000792218
-0.00059633
-0.000627845
-0.000665354
-0.000708404
-0.000755554
-0.000801224
-0.000792769
-0.000596774
-0.000628418
-0.000666064
-0.000709256
-0.000756535
-0.000802307
-0.000793912
-0.00059149
-0.000619752
-0.00065237
-0.000688544
-0.000726449
-0.000762447
-0.000766518
-0.000591071
-0.000619219
-0.000651717
-0.000687775
-0.000725577
-0.000761506
-0.000765552
-0.000590862
-0.000618954
-0.000651394
-0.000687397
-0.000725151
-0.000761047
-0.000765081
-0.000590862
-0.000618954
-0.000651393
-0.000687396
-0.00072515
-0.000761045
-0.00076508
-0.00059107
-0.000619217
-0.000651714
-0.000687772
-0.000725574
-0.000761502
-0.000765548
-0.000591489
-0.00061975
-0.000652366
-0.00068854
-0.000726444
-0.000762441
-0.000766512
-7.47772e-05
-0.000143961
-0.000225383
-0.00029274
-0.000347409
-0.000391119
-0.000425781
-6.89788e-05
-0.00013888
-0.0002213
-0.000289612
-0.000345101
-0.000389447
-0.000424619
-6.05508e-05
-0.000131592
-0.000215582
-0.000285361
-0.000342067
-0.000387344
-0.000423157
-4.87841e-05
-0.000121587
-0.000207945
-0.000279868
-0.000338286
-0.000384844
-0.000421651
-3.27787e-05
-0.000108246
-0.000198178
-0.000273154
-0.000333849
-0.000382081
-0.00042015
-1.26902e-05
-9.08367e-05
-0.000185835
-0.000265174
-0.000328839
-0.000379059
-0.00041851
1.49616e-08
-7.46065e-05
-0.00017315
-0.000257243
-0.000324141
-0.000376373
-0.000417128
-0.000124714
-0.000197607
-0.000270213
-0.000324614
-0.000367983
-0.000403648
-0.000433482
-0.000119971
-0.000193546
-0.000266993
-0.00032216
-0.000366181
-0.000402405
-0.000432682
-0.0001134
-0.000188033
-0.000262739
-0.000319005
-0.000363921
-0.00040086
-0.000431754
-0.000104722
-0.000180958
-0.000257453
-0.000315194
-0.000361255
-0.00039907
-0.000430574
-9.33253e-05
-0.000171991
-0.000251101
-0.000310809
-0.000358261
-0.000397056
-0.000429224
-7.88012e-05
-0.00015979
-0.000242754
-0.00030544
-0.000354806
-0.000394894
-0.00042795
-6.86773e-05
-0.000145975
-0.000232346
-0.00029905
-0.000351026
-0.000392762
-0.000426871
-0.000182218
-0.000245638
-0.000305416
-0.000350338
-0.000386685
-0.000417003
-0.000442819
-0.000178492
-0.00024244
-0.000302873
-0.000348398
-0.000385262
-0.00041601
-0.000442174
-0.000173469
-0.000238225
-0.000299612
-0.000345977
-0.000383527
-0.000414822
-0.000441423
-0.000167055
-0.000232997
-0.000295695
-0.000343148
-0.000381545
-0.000413488
-0.000440582
-0.00015898
-0.000226649
-0.000291164
-0.000339993
-0.000379384
-0.000412061
-0.000439703
-0.00014903
-0.000218374
-0.000285487
-0.000336291
-0.000376993
-0.000410597
-0.000438909
-0.000141986
-0.000208971
-0.000278684
-0.000332157
-0.000374571
-0.000409303
-0.000438369
-0.000454242
-0.000478745
-0.000501128
-0.00052278
-0.000544951
-0.000568961
-0.000453536
-0.000478403
-0.000501064
-0.000522956
-0.000545359
-0.000569609
-0.000452679
-0.000478009
-0.000501007
-0.000523188
-0.000545868
-0.000570415
-0.000451764
-0.000477606
-0.000500977
-0.000523478
-0.00054647
-0.000571358
-0.000450957
-0.000477246
-0.000500995
-0.000523824
-0.000547139
-0.000572392
-0.000450123
-0.000476964
-0.000501101
-0.000524245
-0.000547872
-0.000573486
-0.000449497
-0.00047684
-0.000501302
-0.0005247
-0.000548601
-0.000574604
-0.000459037
-0.000481977
-0.000503508
-0.000524692
-0.000546593
-0.000570387
-0.000458556
-0.000481755
-0.000503519
-0.000524916
-0.000547025
-0.00057104
-0.000458012
-0.000481514
-0.000503556
-0.000525205
-0.000547564
-0.00057185
-0.000457405
-0.000481273
-0.000503628
-0.000525558
-0.000548198
-0.000572797
-0.00045669
-0.000481048
-0.000503743
-0.000525967
-0.0005489
-0.000573836
-0.000456117
-0.000480931
-0.000503957
-0.000526458
-0.000549675
-0.000574948
-0.000455763
-0.000480989
-0.000504282
-0.000526997
-0.000550456
-0.000576072
-0.000465473
-0.000486153
-0.000505819
-0.000525329
-0.000545559
-0.000567468
-0.000465105
-0.000486015
-0.000505882
-0.000525576
-0.000545987
-0.000568093
-0.000464692
-0.000485878
-0.000505983
-0.000525893
-0.000546523
-0.000568867
-0.000464257
-0.00048576
-0.00050613
-0.00052628
-0.000547154
-0.00056977
-0.000463825
-0.000485679
-0.000506327
-0.000526726
-0.000547855
-0.000570763
-0.000463526
-0.000485729
-0.000506639
-0.000527267
-0.000548637
-0.000571844
-0.000463482
-0.000485987
-0.000507096
-0.000527895
-0.000549472
-0.000572924
-0.00059642
-0.000629434
-0.000670444
-0.000720953
-0.000779724
-0.000834268
-0.000803576
-0.000597338
-0.000630665
-0.000672041
-0.000722962
-0.000782168
-0.000837096
-0.000806654
-0.000598488
-0.000632232
-0.000674121
-0.00072565
-0.000785534
-0.00084107
-0.000811006
-0.000599842
-0.000634113
-0.000676689
-0.000729086
-0.000789962
-0.000846407
-0.000816877
-0.000601332
-0.00063622
-0.000679663
-0.000733208
-0.000795481
-0.000853314
-0.000824591
-0.000602877
-0.000638533
-0.000682928
-0.000737795
-0.000801914
-0.000861406
-0.000833287
-0.000604607
-0.000640805
-0.00068614
-0.000742398
-0.000807944
-0.000864645
-0.000830103
-0.000597445
-0.000629291
-0.000667157
-0.000710582
-0.000758079
-0.000804023
-0.000795731
-0.000598346
-0.000630476
-0.00066866
-0.000712435
-0.000760271
-0.000806483
-0.000798344
-0.000599471
-0.000631974
-0.000670595
-0.000714872
-0.000763206
-0.000809804
-0.000801856
-0.000600792
-0.000633761
-0.000672953
-0.000717903
-0.00076694
-0.000814061
-0.000806323
-0.000602256
-0.000635777
-0.000675672
-0.000721482
-0.000771511
-0.000819465
-0.000812061
-0.00060384
-0.000638009
-0.000678745
-0.000725677
-0.000777136
-0.0008262
-0.000818736
-0.000605363
-0.000640129
-0.000681742
-0.000730028
-0.00078312
-0.000830433
-0.000817796
-0.00059212
-0.000620557
-0.000653364
-0.000689726
-0.000727799
-0.00076391
-0.00076802
-0.000592963
-0.000621647
-0.000654727
-0.000691367
-0.000729696
-0.000765979
-0.000770138
-0.000594011
-0.000623016
-0.000656468
-0.000693497
-0.000732197
-0.000768713
-0.000772903
-0.000595238
-0.000624639
-0.000658567
-0.000696115
-0.000735319
-0.000772128
-0.000776296
-0.000596595
-0.000626461
-0.000660968
-0.000699174
-0.000739081
-0.00077635
-0.000780488
-0.000598076
-0.000628483
-0.000663682
-0.000702758
-0.00074374
-0.000781696
-0.00078553
-0.000599507
-0.000630433
-0.000666349
-0.000706475
-0.000748694
-0.000785942
-0.000787135
-0.000224702
-0.000272891
-0.000323582
-0.00036457
-0.000398339
-0.000426623
-0.000450725
-0.00022882
-0.00027845
-0.000327652
-0.000367037
-0.000399696
-0.000427223
-0.000450821
-0.00023498
-0.000283749
-0.000331438
-0.000369538
-0.00040127
-0.000428123
-0.000451232
-0.000240367
-0.000288144
-0.000334677
-0.000371813
-0.000402811
-0.000429106
-0.000451788
-0.000244833
-0.000291874
-0.000337528
-0.000373885
-0.000404258
-0.000430061
-0.000452358
-0.000248423
-0.000294947
-0.000339946
-0.000375695
-0.000405555
-0.000430943
-0.000452904
-0.000251151
-0.000297334
-0.000341875
-0.000377175
-0.000406643
-0.0004317
-0.000453387
-0.000307556
-0.000336137
-0.000368856
-0.000397678
-0.000422632
-0.000444269
-0.000463204
-0.000309452
-0.000338806
-0.000370887
-0.000398839
-0.000423122
-0.000444303
-0.000462948
-0.000312787
-0.000341854
-0.000373166
-0.000400334
-0.000424009
-0.000444742
-0.000463058
-0.000316047
-0.000344674
-0.000375328
-0.000401866
-0.000425032
-0.000445366
-0.000463369
-0.000318889
-0.000347157
-0.000377288
-0.000403309
-0.000426038
-0.000446014
-0.000463729
-0.000321255
-0.000349264
-0.000378997
-0.000404606
-0.000426971
-0.00044664
-0.0004641
-0.000323108
-0.000350947
-0.000380393
-0.000405692
-0.000427773
-0.000447195
-0.000464445
-0.000383022
-0.000395286
-0.000412917
-0.000430765
-0.000447276
-0.000462296
-0.000475924
-0.000383573
-0.000396017
-0.000413521
-0.000430983
-0.000447146
-0.000461944
-0.000475441
-0.000385029
-0.000397467
-0.000414657
-0.000431691
-0.000447499
-0.000462031
-0.00047533
-0.000386756
-0.000399088
-0.000415957
-0.000432615
-0.000448099
-0.000462366
-0.000475451
-0.000388385
-0.000400609
-0.000417208
-0.000433548
-0.000448743
-0.000462764
-0.000475643
-0.000389808
-0.000401958
-0.000418346
-0.000434424
-0.000449373
-0.000463178
-0.000475872
-0.000390966
-0.000403075
-0.000419307
-0.000435182
-0.000449935
-0.000463562
-0.0004761
-0.000448953
-0.0004488
-0.000454463
-0.000462943
-0.000471801
-0.000480521
-0.000488881
-0.000448855
-0.000448393
-0.000454196
-0.000462581
-0.000471294
-0.000479942
-0.000488274
-0.000449186
-0.000448811
-0.000454555
-0.000462739
-0.00047127
-0.000479781
-0.000488011
-0.000449906
-0.000449595
-0.000455219
-0.000463198
-0.000471539
-0.000479888
-0.000487983
-0.000450698
-0.000450422
-0.000455935
-0.00046373
-0.000471892
-0.000480082
-0.000488041
-0.000451446
-0.000451213
-0.000456636
-0.000464272
-0.000472275
-0.00048032
-0.000488151
-0.000452088
-0.000451902
-0.000457259
-0.000464766
-0.000472637
-0.00048056
-0.000488279
-0.000505719
-0.000496194
-0.000492553
-0.000493277
-0.000495438
-0.000498383
-0.000501725
-0.000505392
-0.000495217
-0.000491839
-0.000492615
-0.00049474
-0.000497695
-0.00050107
-0.000505112
-0.000495031
-0.000491723
-0.000492428
-0.000494474
-0.000497376
-0.000500713
-0.000505214
-0.000495268
-0.000491951
-0.000492557
-0.000494503
-0.000497317
-0.000500578
-0.000505465
-0.00049562
-0.000492283
-0.000492792
-0.000494635
-0.000497355
-0.000500531
-0.000505755
-0.000496012
-0.000492661
-0.000493078
-0.000494824
-0.000497453
-0.000500547
-0.000506032
-0.000496383
-0.000493027
-0.000493365
-0.000495026
-0.000497576
-0.000500595
-0.000554597
-0.000537457
-0.000526637
-0.000521053
-0.000517516
-0.000515335
-0.000514064
-0.00055418
-0.000536261
-0.000525742
-0.000520281
-0.000516755
-0.000514622
-0.000513413
-0.000553604
-0.000535758
-0.000525369
-0.000519905
-0.000516357
-0.000514219
-0.000513011
-0.000553357
-0.000535659
-0.000525317
-0.000519819
-0.000516227
-0.00051405
-0.000512807
-0.000553286
-0.0005357
-0.000525382
-0.000519846
-0.000516205
-0.000513978
-0.000512688
-0.0005533
-0.000535819
-0.000525521
-0.000519944
-0.000516251
-0.000513974
-0.000512633
-0.000553353
-0.000535967
-0.000525687
-0.000520071
-0.000516332
-0.000514007
-0.000512619
-0.000471857
-0.000491069
-0.000509279
-0.000527337
-0.000546123
-0.000566096
-0.000471635
-0.000490657
-0.000508744
-0.000526678
-0.000545233
-0.000565147
-0.000471695
-0.000490468
-0.000508364
-0.000526125
-0.000544487
-0.000564185
-0.000471917
-0.000490429
-0.000508109
-0.000525672
-0.000543829
-0.000563296
-0.00047218
-0.000490442
-0.000507911
-0.000525279
-0.000543236
-0.000562484
-0.000472455
-0.000490492
-0.000507767
-0.000524955
-0.000542732
-0.000561782
-0.000472712
-0.000490559
-0.000507668
-0.000524702
-0.000542327
-0.000561211
-0.000480114
-0.00049568
-0.000510532
-0.000525265
-0.000540455
-0.000556346
-0.000479687
-0.000495161
-0.00050996
-0.000524628
-0.00053966
-0.000555561
-0.000479564
-0.000494873
-0.000509546
-0.000524102
-0.000539024
-0.000554756
-0.000479631
-0.000494748
-0.000509262
-0.00052367
-0.000538442
-0.000554
-0.000479759
-0.000494687
-0.000509037
-0.000523293
-0.000537911
-0.000553302
-0.000479921
-0.000494673
-0.000508869
-0.00052298
-0.000537452
-0.000552691
-0.000480087
-0.000494688
-0.000508748
-0.000522732
-0.000537077
-0.000552189
-0.000488384
-0.000500008
-0.000511155
-0.000522179
-0.000533415
-0.00054485
-0.000487835
-0.000499438
-0.000510584
-0.000521586
-0.000532698
-0.00054422
-0.000487584
-0.000499091
-0.000510164
-0.000521103
-0.000532168
-0.000543569
-0.000487535
-0.000498908
-0.000509869
-0.000520705
-0.000531667
-0.000542946
-0.00048756
-0.000498794
-0.000509634
-0.000520357
-0.000531206
-0.000542364
-0.000487632
-0.000498733
-0.000509455
-0.000520066
-0.000530805
-0.00054185
-0.000487725
-0.000498708
-0.000509324
-0.000519836
-0.000530477
-0.000541425
-0.000496787
-0.0005043
-0.000511546
-0.000518665
-0.000525775
-0.000532761
-0.000496184
-0.000503723
-0.000511003
-0.000518142
-0.000525228
-0.00053228
-0.00049585
-0.000503344
-0.000510592
-0.000517702
-0.000524752
-0.000531758
-0.000495714
-0.000503122
-0.000510298
-0.00051734
-0.000524321
-0.000531252
-0.000495657
-0.000502969
-0.00051006
-0.000517023
-0.000523926
-0.000530776
-0.000495656
-0.000502871
-0.000509877
-0.00051676
-0.000523583
-0.000530353
-0.000495686
-0.000502815
-0.000509742
-0.000516551
-0.000523302
-0.00053
-0.000505169
-0.00050858
-0.000511904
-0.000515117
-0.000518196
-0.000520865
-0.000504558
-0.000508022
-0.000511402
-0.000514657
-0.00051773
-0.000520492
-0.000504179
-0.000507634
-0.000511012
-0.000514264
-0.000517326
-0.000520078
-0.000503982
-0.000507388
-0.000510725
-0.000513938
-0.00051696
-0.000519671
-0.000503863
-0.000507208
-0.000510491
-0.000513654
-0.000516625
-0.000519285
-0.000503804
-0.000507084
-0.000510308
-0.000513416
-0.000516333
-0.000518939
-0.000503784
-0.000507003
-0.000510171
-0.000513228
-0.000516093
-0.000518649
-0.000513294
-0.000512763
-0.00051229
-0.000511723
-0.000510901
-0.000509586
-0.000512707
-0.000512243
-0.000511835
-0.000511326
-0.00051055
-0.000509298
-0.000512313
-0.000511863
-0.000511473
-0.000510981
-0.000510217
-0.000508971
-0.00051208
-0.000511607
-0.000511199
-0.00051069
-0.000509909
-0.000508643
-0.00051192
-0.000511412
-0.000510973
-0.000510435
-0.000509624
-0.000508328
-0.000511819
-0.00051127
-0.000510793
-0.000510219
-0.000509374
-0.000508045
-0.000511761
-0.000511171
-0.000510656
-0.000510046
-0.000509168
-0.000507805
-0.000588398
-0.000613643
-0.000641839
-0.000671924
-0.000701849
-0.000726393
-0.000730644
-0.000587214
-0.000612073
-0.000639734
-0.00066907
-0.00069822
-0.000723056
-0.000728305
-0.000585951
-0.000610409
-0.000637572
-0.000666298
-0.00069477
-0.000719324
-0.000724922
-0.000584776
-0.000608879
-0.000635622
-0.000663884
-0.0006919
-0.000716253
-0.000722047
-0.000583704
-0.000607498
-0.000633888
-0.000661778
-0.000689458
-0.000713667
-0.000719583
-0.000582778
-0.000606318
-0.000632428
-0.000660031
-0.000687458
-0.000711546
-0.000717516
-0.000582026
-0.000605368
-0.000631267
-0.000658661
-0.000685909
-0.000709904
-0.000715894
-0.000573604
-0.00059239
-0.000612352
-0.000632448
-0.00065098
-0.000663893
-0.000664895
-0.000572683
-0.000591234
-0.000610866
-0.00063051
-0.000648684
-0.00066187
-0.000663038
-0.000571672
-0.000589958
-0.000609271
-0.000628537
-0.000646343
-0.000659509
-0.000660993
-0.000570708
-0.000588745
-0.00060778
-0.000626752
-0.000644293
-0.000657412
-0.00065914
-0.000569817
-0.000587632
-0.000606425
-0.000625156
-0.000642498
-0.000655574
-0.000657457
-0.000569037
-0.000586665
-0.000605261
-0.000623801
-0.00064099
-0.000654023
-0.000656002
-0.000568396
-0.000585875
-0.000604319
-0.000622716
-0.000639792
-0.00065279
-0.000654828
-0.000556865
-0.000569324
-0.000581704
-0.0005931
-0.000602197
-0.000605482
-0.000600589
-0.000556186
-0.000568532
-0.000580745
-0.000591907
-0.000600902
-0.000604482
-0.000599229
-0.000555407
-0.000567596
-0.000579627
-0.000590576
-0.000599395
-0.000603068
-0.000598042
-0.000554644
-0.000566671
-0.00057853
-0.000589306
-0.000597987
-0.000601693
-0.0005969
-0.000553927
-0.000565805
-0.000577508
-0.000588141
-0.000596715
-0.000600438
-0.000595807
-0.000553292
-0.000565039
-0.000576612
-0.000587126
-0.000595618
-0.000599347
-0.000594829
-0.000552764
-0.000564405
-0.000575874
-0.000586297
-0.000594725
-0.000598456
-0.000594017
-0.000539715
-0.000546351
-0.000552086
-0.000556152
-0.00055752
-0.000552851
-0.000541555
-0.000539233
-0.000545834
-0.000551507
-0.000555465
-0.00055686
-0.000552487
-0.00054045
-0.000538647
-0.000545167
-0.000550748
-0.000554599
-0.000555927
-0.000551686
-0.000539773
-0.000538056
-0.000544479
-0.000549961
-0.000553719
-0.000554985
-0.000550815
-0.000539105
-0.000537491
-0.000543819
-0.000549208
-0.000552886
-0.000554106
-0.000549984
-0.000538427
-0.000536984
-0.000543226
-0.000548533
-0.000552144
-0.000553326
-0.000549239
-0.000537798
-0.000536559
-0.000542728
-0.000547968
-0.000551524
-0.000552677
-0.000548615
-0.000537259
-0.000523102
-0.00052452
-0.000524523
-0.000522457
-0.000517479
-0.000506221
-0.000488879
-0.000522761
-0.00052419
-0.000524187
-0.000522074
-0.000517184
-0.000506226
-0.000487901
-0.000522325
-0.000523721
-0.000523681
-0.00052152
-0.000516616
-0.000505799
-0.000487517
-0.000521869
-0.000523213
-0.000523122
-0.000520917
-0.000515996
-0.000505259
-0.000487141
-0.000521428
-0.000522715
-0.000522573
-0.000520329
-0.000515395
-0.000504718
-0.000486731
-0.000521028
-0.00052226
-0.00052207
-0.000519791
-0.000514848
-0.000504217
-0.000486336
-0.000520688
-0.000521873
-0.000521641
-0.000519333
-0.000514382
-0.000503787
-0.000485988
-0.00050754
-0.000504357
-0.000499463
-0.000492295
-0.000482131
-0.000465521
-0.000442444
-0.000507295
-0.000504144
-0.000499266
-0.000492076
-0.000482022
-0.000465692
-0.00044158
-0.000506966
-0.000503809
-0.000498923
-0.000491712
-0.000481667
-0.000465476
-0.00044136
-0.000506614
-0.000503432
-0.000498523
-0.000491293
-0.00048125
-0.000465135
-0.000441148
-0.000506268
-0.000503055
-0.00049812
-0.000490873
-0.000480834
-0.000464774
-0.000440889
-0.000505951
-0.000502705
-0.000497743
-0.000490481
-0.000480446
-0.00046443
-0.000440631
-0.000505679
-0.000502404
-0.000497418
-0.000490141
-0.000480109
-0.000464129
-0.000440398
-0.000253086
-0.000299063
-0.000343302
-0.000378294
-0.00040748
-0.000432293
-0.000453774
-0.00025432
-0.000300181
-0.000344241
-0.00037904
-0.000408047
-0.000432699
-0.000454043
-0.000254919
-0.000300729
-0.000344705
-0.000379412
-0.000408332
-0.000432905
-0.000454181
-0.000254919
-0.000300729
-0.000344705
-0.000379412
-0.000408332
-0.000432905
-0.000454181
-0.000254319
-0.00030018
-0.000344241
-0.00037904
-0.000408047
-0.0004327
-0.000454044
-0.000253086
-0.000299062
-0.000343302
-0.000378294
-0.000407481
-0.000432294
-0.000453775
-0.000324456
-0.000352191
-0.000381446
-0.000406527
-0.000428401
-0.000447639
-0.000464727
-0.000325328
-0.000353008
-0.000382147
-0.00040709
-0.000428831
-0.000447946
-0.000464927
-0.000325756
-0.000353412
-0.000382496
-0.000407373
-0.000429048
-0.000448103
-0.00046503
-0.000325756
-0.000353412
-0.000382496
-0.000407373
-0.000429049
-0.000448103
-0.00046503
-0.000325328
-0.000353008
-0.000382147
-0.00040709
-0.000428831
-0.000447947
-0.000464928
-0.000324455
-0.000352191
-0.000381446
-0.000406527
-0.000428402
-0.00044764
-0.000464729
-0.000391832
-0.000403922
-0.000420047
-0.000435777
-0.000450385
-0.000463877
-0.000476294
-0.000392404
-0.000404485
-0.000420546
-0.000436184
-0.000450696
-0.000464099
-0.000476434
-0.000392689
-0.000404766
-0.000420797
-0.000436389
-0.000450856
-0.000464213
-0.000476507
-0.000392689
-0.000404767
-0.000420797
-0.00043639
-0.000450856
-0.000464214
-0.000476508
-0.000392405
-0.000404486
-0.000420546
-0.000436184
-0.000450697
-0.0004641
-0.000476435
-0.000391833
-0.000403922
-0.000420048
-0.000435778
-0.000450386
-0.000463878
-0.000476295
-0.000452585
-0.00045244
-0.000457752
-0.000465164
-0.000472937
-0.000480766
-0.000488398
-0.000452924
-0.000452805
-0.000458089
-0.00046544
-0.000473148
-0.000480915
-0.000488487
-0.000453096
-0.000452988
-0.000458258
-0.000465581
-0.000473258
-0.000480992
-0.000488534
-0.000453096
-0.000452989
-0.000458259
-0.000465582
-0.000473258
-0.000480992
-0.000488534
-0.000452925
-0.000452806
-0.00045809
-0.000465441
-0.000473149
-0.000480915
-0.000488488
-0.000452587
-0.000452442
-0.000457754
-0.000465165
-0.000472938
-0.000480768
-0.000488399
-0.000506263
-0.000496689
-0.000493329
-0.000493607
-0.000495204
-0.000497692
-0.00050065
-0.000506431
-0.000496903
-0.000493538
-0.000493779
-0.000495334
-0.000497779
-0.000500696
-0.00050652
-0.000497012
-0.000493644
-0.000493868
-0.000495402
-0.000497826
-0.000500722
-0.000506521
-0.000497012
-0.000493644
-0.000493868
-0.000495403
-0.000497826
-0.000500722
-0.000506433
-0.000496904
-0.00049354
-0.00049378
-0.000495335
-0.00049778
-0.000500697
-0.000506265
-0.000496691
-0.000493331
-0.000493609
-0.000495206
-0.000497694
-0.000500652
-0.000553417
-0.000536104
-0.000525836
-0.000520191
-0.000516416
-0.000514053
-0.000512626
-0.000553472
-0.000536204
-0.000525945
-0.000520281
-0.000516482
-0.000514092
-0.000512637
-0.000553504
-0.000536256
-0.000526001
-0.000520329
-0.000516518
-0.000514115
-0.000512646
-0.000553504
-0.000536256
-0.000526001
-0.000520329