/*--------------------------------*- C++ -*----------------------------------*\
  =========                 |
  \\      /  F ield         | OpenFOAM: The Open Source CFD Toolbox
   \\    /   O peration     | Website:  https://openfoam.org
    \\  /    A nd           | Version:  7
     \\/     M anipulation  |
\*---------------------------------------------------------------------------*/
FoamFile
{
    version     2.0;
    format      ascii;
    class       volVectorField;
    location    "5";
    object      U;
}
// * * * * * * * * * * * * * * * * * * * * * * * * * * * * * * * * * * * * * //

dimensions      [0 1 -1 0 0 0 0];

internalField   nonuniform List<vector> 
7784
(
(1.19747 -1.779e-05 -1.65865e-05)
(1.19749 -1.54977e-05 -1.30382e-05)
(1.19751 -1.24463e-05 -7.98188e-06)
(1.19753 -9.45993e-06 -3.27832e-06)
(1.19753 -6.91785e-06 -2.18317e-07)
(1.19753 -4.95331e-06 1.10561e-06)
(1.19753 -3.51998e-06 1.31674e-06)
(1.19747 -1.17255e-05 -1.39506e-05)
(1.19749 -1.02282e-05 -1.09655e-05)
(1.19752 -8.57659e-06 -6.73887e-06)
(1.19753 -6.98461e-06 -2.67715e-06)
(1.19753 -5.48832e-06 1.74299e-08)
(1.19753 -4.19592e-06 1.16912e-06)
(1.19753 -3.16228e-06 1.30901e-06)
(1.19747 -6.55839e-06 -1.17151e-05)
(1.1975 -6.2799e-06 -9.16508e-06)
(1.19752 -5.84721e-06 -5.58507e-06)
(1.19753 -5.18444e-06 -2.07862e-06)
(1.19753 -4.36264e-06 2.70242e-07)
(1.19753 -3.52988e-06 1.25036e-06)
(1.19753 -2.78972e-06 1.31853e-06)
(1.19748 -4.34253e-06 -1.04856e-05)
(1.1975 -4.40959e-06 -8.15127e-06)
(1.19752 -4.34079e-06 -4.90366e-06)
(1.19753 -4.02382e-06 -1.70715e-06)
(1.19753 -3.52427e-06 4.353e-07)
(1.19754 -2.95668e-06 1.30618e-06)
(1.19754 -2.40906e-06 1.32543e-06)
(1.19748 -3.34946e-06 -9.98093e-06)
(1.1975 -3.41896e-06 -7.72911e-06)
(1.19752 -3.38996e-06 -4.61329e-06)
(1.19753 -3.18377e-06 -1.54808e-06)
(1.19754 -2.8428e-06 5.03521e-07)
(1.19754 -2.4376e-06 1.32464e-06)
(1.19754 -2.0257e-06 1.31848e-06)
(1.19748 -2.69878e-06 -9.83853e-06)
(1.1975 -2.72468e-06 -7.61079e-06)
(1.19752 -2.67548e-06 -4.53317e-06)
(1.19753 -2.50955e-06 -1.50852e-06)
(1.19754 -2.25591e-06 5.14958e-07)
(1.19754 -1.95737e-06 1.32034e-06)
(1.19754 -1.64748e-06 1.30316e-06)
(1.19748 -2.12567e-06 -9.83099e-06)
(1.1975 -2.12086e-06 -7.60622e-06)
(1.19752 -2.05569e-06 -4.53268e-06)
(1.19753 -1.91536e-06 -1.51386e-06)
(1.19754 -1.7222e-06 5.06304e-07)
(1.19754 -1.503e-06 1.31109e-06)
(1.19754 -1.27587e-06 1.29098e-06)
(0.670786 -4.52536e-05 -5.83084e-05)
(0.670826 -4.00784e-05 -5.01813e-05)
(0.670867 -3.23988e-05 -3.64947e-05)
(0.670896 -2.44268e-05 -2.19779e-05)
(0.670917 -1.7613e-05 -1.11633e-05)
(0.67093 -1.24258e-05 -5.03222e-06)
(0.670939 -8.69704e-06 -2.27948e-06)
(0.670795 -3.64801e-05 -5.22374e-05)
(0.670835 -3.26151e-05 -4.56045e-05)
(0.670872 -2.70671e-05 -3.37605e-05)
(0.6709 -2.11557e-05 -2.05875e-05)
(0.670919 -1.58482e-05 -1.05378e-05)
(0.670931 -1.15951e-05 -4.78482e-06)
(0.67094 -8.39356e-06 -2.20343e-06)
(0.670806 -2.70691e-05 -4.62974e-05)
(0.670844 -2.51787e-05 -4.08004e-05)
(0.670879 -2.18117e-05 -3.0558e-05)
(0.670904 -1.77557e-05 -1.87608e-05)
(0.670922 -1.38229e-05 -9.60583e-06)
(0.670934 -1.04755e-05 -4.34273e-06)
(0.670941 -7.82144e-06 -2.00385e-06)
(0.670814 -2.04354e-05 -4.23435e-05)
(0.670851 -1.94362e-05 -3.74374e-05)
(0.670885 -1.73081e-05 -2.81448e-05)
(0.670909 -1.4521e-05 -1.72674e-05)
(0.670925 -1.16655e-05 -8.77014e-06)
(0.670936 -9.11229e-06 -3.89963e-06)
(0.670944 -6.99066e-06 -1.77296e-06)
(0.67082 -1.56248e-05 -4.01946e-05)
(0.670856 -1.49666e-05 -3.55476e-05)
(0.670889 -1.35213e-05 -2.67151e-05)
(0.670912 -1.15828e-05 -1.63239e-05)
(0.670928 -9.53561e-06 -8.20004e-06)
(0.670939 -7.63579e-06 -3.56931e-06)
(0.670945 -5.99413e-06 -1.58443e-06)
(0.670823 -1.18505e-05 -3.91715e-05)
(0.670859 -1.13731e-05 -3.46208e-05)
(0.670892 -1.03564e-05 -2.59763e-05)
(0.670915 -8.99699e-06 -1.58021e-05)
(0.67093 -7.53915e-06 -7.85782e-06)
(0.67094 -6.1503e-06 -3.35239e-06)
(0.670947 -4.91414e-06 -1.44993e-06)
(0.670826 -8.73129e-06 -3.87143e-05)
(0.670861 -8.38126e-06 -3.41908e-05)
(0.670894 -7.66365e-06 -2.56117e-05)
(0.670917 -6.71643e-06 -1.55242e-05)
(0.670932 -5.69538e-06 -7.65885e-06)
(0.670942 -4.70675e-06 -3.21368e-06)
(0.670948 -3.80851e-06 -1.35578e-06)
(0.317065 -5.14088e-05 -0.000102458)
(0.3171 -4.58413e-05 -9.41595e-05)
(0.317134 -3.73486e-05 -7.58869e-05)
(0.317163 -2.83723e-05 -5.34702e-05)
(0.317187 -2.06326e-05 -3.45056e-05)
(0.317205 -1.46814e-05 -2.16403e-05)
(0.317219 -1.03382e-05 -1.39031e-05)
(0.317074 -4.48378e-05 -9.58332e-05)
(0.317107 -4.0326e-05 -8.91515e-05)
(0.31714 -3.34947e-05 -7.26329e-05)
(0.317167 -2.61103e-05 -5.15454e-05)
(0.317189 -1.95219e-05 -3.3433e-05)
(0.317207 -1.42695e-05 -2.106e-05)
(0.317221 -1.03049e-05 -1.35897e-05)
(0.317085 -3.65829e-05 -8.81254e-05)
(0.317117 -3.36883e-05 -8.27162e-05)
(0.317147 -2.87351e-05 -6.80026e-05)
(0.317173 -2.30486e-05 -4.85773e-05)
(0.317194 -1.77404e-05 -3.16654e-05)
(0.31721 -1.33242e-05 -2.00424e-05)
(0.317223 -9.85596e-06 -1.30057e-05)
(0.317093 -2.92246e-05 -8.20004e-05)
(0.317125 -2.72856e-05 -7.73415e-05)
(0.317154 -2.37394e-05 -6.39049e-05)
(0.317178 -1.95107e-05 -4.57956e-05)
(0.317198 -1.54167e-05 -2.99102e-05)
(0.317214 -1.18743e-05 -1.89702e-05)
(0.317226 -8.98176e-06 -1.23527e-05)
(0.3171 -2.29096e-05 -7.79891e-05)
(0.317131 -2.15295e-05 -7.37298e-05)
(0.31716 -1.8989e-05 -6.10382e-05)
(0.317183 -1.59147e-05 -4.37502e-05)
(0.317202 -1.28596e-05 -2.85446e-05)
(0.317217 -1.01265e-05 -1.80852e-05)
(0.317228 -7.81425e-06 -1.17808e-05)
(0.317104 -1.75215e-05 -7.56271e-05)
(0.317135 -1.6527e-05 -7.15595e-05)
(0.317163 -1.47188e-05 -5.92496e-05)
(0.317186 -1.25211e-05 -4.24085e-05)
(0.317205 -1.02968e-05 -2.75961e-05)
(0.317219 -8.25381e-06 -1.74333e-05)
(0.31723 -6.47443e-06 -1.13346e-05)
(0.317107 -1.29067e-05 -7.4289e-05)
(0.317138 -1.22021e-05 -7.03055e-05)
(0.317166 -1.09394e-05 -5.81788e-05)
(0.317189 -9.40557e-06 -4.15669e-05)
(0.317207 -7.83485e-06 -2.69693e-05)
(0.317221 -6.36447e-06 -1.69801e-05)
(0.317232 -5.05533e-06 -1.10096e-05)
(1.19753 -2.49871e-06 1.02679e-06)
(1.19753 -1.76455e-06 6.06381e-07)
(1.19753 -1.21864e-06 2.14616e-07)
(1.19754 -7.95492e-07 -1.40542e-07)
(1.19754 -4.5173e-07 -5.05829e-07)
(1.19754 -1.52804e-07 -9.47589e-07)
(1.19753 -2.36505e-06 9.96877e-07)
(1.19753 -1.75454e-06 5.77614e-07)
(1.19753 -1.27807e-06 1.93722e-07)
(1.19754 -8.99886e-07 -1.52675e-07)
(1.19754 -5.96574e-07 -5.09078e-07)
(1.19754 -3.49526e-07 -9.37793e-07)
(1.19753 -2.16928e-06 9.80086e-07)
(1.19753 -1.66519e-06 5.59395e-07)
(1.19753 -1.25436e-06 1.81343e-07)
(1.19754 -9.20432e-07 -1.58466e-07)
(1.19754 -6.51009e-07 -5.08298e-07)
(1.19754 -4.3588e-07 -9.30048e-07)
(1.19754 -1.92395e-06 9.70175e-07)
(1.19753 -1.51417e-06 5.51866e-07)
(1.19754 -1.1677e-06 1.78114e-07)
(1.19754 -8.80307e-07 -1.58031e-07)
(1.19754 -6.46323e-07 -5.04165e-07)
(1.19754 -4.60087e-07 -9.2178e-07)
(1.19754 -1.65079e-06 9.5759e-07)
(1.19754 -1.32389e-06 5.47139e-07)
(1.19754 -1.03947e-06 1.77795e-07)
(1.19754 -7.99219e-07 -1.55661e-07)
(1.19754 -6.00989e-07 -4.99255e-07)
(1.19754 -4.41257e-07 -9.13756e-07)
(1.19754 -1.36197e-06 9.46245e-07)
(1.19754 -1.10635e-06 5.4385e-07)
(1.19754 -8.80189e-07 1.78377e-07)
(1.19754 -6.86295e-07 -1.52934e-07)
(1.19754 -5.23854e-07 -4.94621e-07)
(1.19754 -3.90306e-07 -9.0674e-07)
(1.19754 -1.06391e-06 9.38415e-07)
(1.19754 -8.71807e-07 5.41911e-07)
(1.19754 -7.00071e-07 1.79313e-07)
(1.19754 -5.5114e-07 -1.50404e-07)
(1.19754 -4.24566e-07 -4.90697e-07)
(1.19754 -3.18346e-07 -9.01059e-07)
(0.670945 -6.05826e-06 -1.34996e-06)
(0.670949 -4.15893e-06 -1.21629e-06)
(0.670952 -2.73793e-06 -1.39132e-06)
(0.670955 -1.61371e-06 -1.73353e-06)
(0.670957 -6.53883e-07 -2.25223e-06)
(0.670959 2.59979e-07 -3.00049e-06)
(0.670946 -6.03528e-06 -1.34104e-06)
(0.67095 -4.27396e-06 -1.22616e-06)
(0.670953 -2.91919e-06 -1.40195e-06)
(0.670955 -1.83343e-06 -1.73932e-06)
(0.670957 -9.13397e-07 -2.25099e-06)
(0.670959 -6.68095e-08 -2.98148e-06)
(0.670947 -5.77593e-06 -1.2525e-06)
(0.670951 -4.18868e-06 -1.18277e-06)
(0.670954 -2.93502e-06 -1.3765e-06)
(0.670956 -1.91486e-06 -1.72043e-06)
(0.670958 -1.0483e-06 -2.23324e-06)
(0.670959 -2.668e-07 -2.96339e-06)
(0.670948 -5.2803e-06 -1.12744e-06)
(0.670952 -3.9035e-06 -1.10679e-06)
(0.670954 -2.78944e-06 -1.32689e-06)
(0.670957 -1.86791e-06 -1.68598e-06)
(0.670958 -1.07937e-06 -2.20757e-06)
(0.67096 -3.71702e-07 -2.94473e-06)
(0.67095 -4.6151e-06 -1.01399e-06)
(0.670953 -3.4694e-06 -1.03022e-06)
(0.670955 -2.52043e-06 -1.27402e-06)
(0.670957 -1.72167e-06 -1.6488e-06)
(0.670959 -1.03097e-06 -2.18086e-06)
(0.67096 -4.09306e-07 -2.92602e-06)
(0.670951 -3.84188e-06 -9.23803e-07)
(0.670954 -2.92897e-06 -9.64923e-07)
(0.670956 -2.15638e-06 -1.22689e-06)
(0.670958 -1.49529e-06 -1.6148e-06)
(0.67096 -9.17072e-07 -2.15634e-06)
(0.670961 -3.93314e-07 -2.90852e-06)
(0.670952 -3.01294e-06 -8.55853e-07)
(0.670955 -2.32208e-06 -9.13456e-07)
(0.670957 -1.72715e-06 -1.18851e-06)
(0.670959 -1.21092e-06 -1.58648e-06)
(0.67096 -7.54632e-07 -2.13564e-06)
(0.670961 -3.38416e-07 -2.89339e-06)
(0.31723 -7.20257e-06 -9.43847e-06)
(0.317237 -4.89462e-06 -6.80447e-06)
(0.317242 -3.12303e-06 -5.17413e-06)
(0.317245 -1.67652e-06 -4.12761e-06)
(0.317246 -3.89465e-07 -3.44615e-06)
(0.317245 9.03167e-07 -2.94599e-06)
(0.317231 -7.35353e-06 -9.26399e-06)
(0.317238 -5.1221e-06 -6.7034e-06)
(0.317242 -3.37569e-06 -5.11351e-06)
(0.317245 -1.938e-06 -4.09157e-06)
(0.317246 -6.67917e-07 -3.42881e-06)
(0.317246 5.73922e-07 -2.9328e-06)
(0.317232 -7.18076e-06 -8.91972e-06)
(0.317239 -5.09862e-06 -6.49492e-06)
(0.317243 -3.43535e-06 -4.98555e-06)
(0.317246 -2.04964e-06 -4.01444e-06)
(0.317247 -8.24304e-07 -3.38783e-06)
(0.317246 3.46948e-07 -2.92826e-06)
(0.317234 -6.6687e-06 -8.51534e-06)
(0.317241 -4.81464e-06 -6.2417e-06)
(0.317245 -3.30166e-06 -4.82707e-06)
(0.317247 -2.02409e-06 -3.91938e-06)
(0.317248 -8.89725e-07 -3.34069e-06)
(0.317247 1.86014e-07 -2.92933e-06)
(0.317236 -5.90206e-06 -8.14319e-06)
(0.317242 -4.32593e-06 -6.00029e-06)
(0.317246 -3.01194e-06 -4.67165e-06)
(0.317248 -1.88623e-06 -3.82437e-06)
(0.317249 -8.80471e-07 -3.29318e-06)
(0.317248 7.10313e-08 -2.92712e-06)
(0.317238 -4.96085e-06 -7.84006e-06)
(0.317243 -3.68293e-06 -5.79601e-06)
(0.317247 -2.59668e-06 -4.53603e-06)
(0.317249 -1.65318e-06 -3.73926e-06)
(0.31725 -8.04195e-07 -3.24916e-06)
(0.317249 -8.71776e-10 -2.9202e-06)
(0.317239 -3.91744e-06 -7.61018e-06)
(0.317245 -2.93796e-06 -5.63571e-06)
(0.317248 -2.09195e-06 -4.42665e-06)
(0.31725 -1.34837e-06 -3.66887e-06)
(0.31725 -6.74675e-07 -3.21124e-06)
(0.31725 -3.65362e-08 -2.9109e-06)
(1.19754 1.36219e-07 -1.51181e-06)
(1.19754 4.62701e-07 -2.16257e-06)
(1.19755 8.75393e-07 -2.59994e-06)
(1.19755 1.52512e-06 -1.76462e-06)
(1.19755 2.85618e-06 2.71218e-06)
(1.19752 5.69541e-06 1.39265e-05)
(1.1975 9.15636e-06 3.18279e-05)
(1.19754 -1.4079e-07 -1.48797e-06)
(1.19754 5.11977e-08 -2.14033e-06)
(1.19755 2.52377e-07 -2.59616e-06)
(1.19755 5.54799e-07 -1.85394e-06)
(1.19755 1.30575e-06 2.33255e-06)
(1.19752 3.31545e-06 1.29025e-05)
(1.19751 6.02164e-06 3.003e-05)
(1.19754 -2.6768e-07 -1.47639e-06)
(1.19754 -1.45492e-07 -2.12661e-06)
(1.19755 -4.63598e-08 -2.60173e-06)
(1.19755 8.19191e-08 -1.94844e-06)
(1.19755 4.11503e-07 1.98883e-06)
(1.19753 1.27985e-06 1.20872e-05)
(1.19751 2.47551e-06 2.87062e-05)
(1.19754 -3.18141e-07 -1.46464e-06)
(1.19754 -2.1736e-07 -2.11245e-06)
(1.19755 -1.46049e-07 -2.59455e-06)
(1.19755 -6.86387e-08 -1.9881e-06)
(1.19755 1.15115e-07 1.80655e-06)
(1.19753 5.5628e-07 1.16523e-05)
(1.19751 1.14635e-06 2.80095e-05)
(1.19754 -3.16996e-07 -1.45299e-06)
(1.19754 -2.23793e-07 -2.09705e-06)
(1.19755 -1.50651e-07 -2.57943e-06)
(1.19755 -7.28787e-08 -1.99103e-06)
(1.19755 7.1431e-08 1.7415e-06)
(1.19753 3.58465e-07 1.14788e-05)
(1.19751 7.11376e-07 2.77273e-05)
(1.19754 -2.82527e-07 -1.44283e-06)
(1.19754 -1.95494e-07 -2.08297e-06)
(1.19755 -1.19041e-07 -2.5623e-06)
(1.19755 -3.41759e-08 -1.97841e-06)
(1.19755 9.52846e-08 1.73296e-06)
(1.19753 3.05739e-07 1.14324e-05)
(1.19751 5.38815e-07 2.76452e-05)
(1.19754 -2.29519e-07 -1.43475e-06)
(1.19754 -1.53256e-07 -2.07173e-06)
(1.19755 -8.10139e-08 -2.54761e-06)
(1.19755 9.13764e-10 -1.96303e-06)
(1.19755 1.13882e-07 1.74333e-06)
(1.19753 2.73075e-07 1.1433e-05)
(1.19751 4.34102e-07 2.76381e-05)
(0.67096 1.24105e-06 -3.89859e-06)
(0.670961 2.43287e-06 -4.46983e-06)
(0.67096 4.0705e-06 -3.20521e-06)
(0.670954 6.57981e-06 3.40364e-06)
(0.670938 1.07463e-05 2.08927e-05)
(0.670904 1.71956e-05 5.34092e-05)
(0.670879 2.34293e-05 9.42111e-05)
(0.67096 7.91955e-07 -3.8698e-06)
(0.670961 1.77001e-06 -4.46586e-06)
(0.67096 3.04517e-06 -3.29369e-06)
(0.670954 4.933e-06 3.01816e-06)
(0.670939 8.07542e-06 1.97315e-05)
(0.670906 1.3169e-05 5.06419e-05)
(0.67088 1.83217e-05 8.96218e-05)
(0.67096 4.92499e-07 -3.86131e-06)
(0.670961 1.31196e-06 -4.49213e-06)
(0.67096 2.32164e-06 -3.44444e-06)
(0.670954 3.73256e-06 2.52168e-06)
(0.670939 5.90144e-06 1.84613e-05)
(0.670907 9.08751e-06 4.80848e-05)
(0.670881 1.21626e-05 8.58031e-05)
(0.670961 3.04084e-07 -3.85573e-06)
(0.670961 1.01041e-06 -4.52006e-06)
(0.67096 1.83903e-06 -3.56838e-06)
(0.670955 2.92722e-06 2.15225e-06)
(0.67094 4.46899e-06 1.75785e-05)
(0.670908 6.53842e-06 4.64314e-05)
(0.670882 8.4247e-06 8.3456e-05)
(0.670961 1.81627e-07 -3.84766e-06)
(0.670962 7.88577e-07 -4.53474e-06)
(0.670961 1.47626e-06 -3.64249e-06)
(0.670956 2.33145e-06 1.93949e-06)
(0.670941 3.4632e-06 1.70899e-05)
(0.670909 4.87524e-06 4.55522e-05)
(0.670883 6.10254e-06 8.2246e-05)
(0.670962 1.05125e-07 -3.83774e-06)
(0.670962 6.12789e-07 -4.53823e-06)
(0.670961 1.17483e-06 -3.67762e-06)
(0.670956 1.8452e-06 1.83538e-06)
(0.670942 2.68177e-06 1.6856e-05)
(0.67091 3.66061e-06 4.51445e-05)
(0.670885 4.47598e-06 8.17013e-05)
(0.670962 5.89254e-08 -3.82793e-06)
(0.670963 4.62119e-07 -4.53625e-06)
(0.670962 9.01808e-07 -3.69176e-06)
(0.670957 1.4109e-06 1.78926e-06)
(0.670943 2.01837e-06 1.67531e-05)
(0.670911 2.69399e-06 4.49711e-05)
(0.670885 3.237e-06 8.14783e-05)
(0.317243 2.34557e-06 -2.1435e-06)
(0.317237 4.14356e-06 1.13058e-07)
(0.317228 6.59954e-06 6.4553e-06)
(0.317213 1.01493e-05 2.1513e-05)
(0.317189 1.53104e-05 5.03304e-05)
(0.317159 2.19027e-05 9.28797e-05)
(0.317139 2.7222e-05 0.000135747)
(0.317243 1.90859e-06 -2.15588e-06)
(0.317237 3.50586e-06 3.2788e-08)
(0.317228 5.61044e-06 6.20338e-06)
(0.317213 8.5677e-06 2.08521e-05)
(0.31719 1.28182e-05 4.87732e-05)
(0.31716 1.83555e-05 8.96163e-05)
(0.31714 2.2976e-05 0.000130633)
(0.317244 1.5697e-06 -2.20588e-06)
(0.317238 2.97981e-06 -1.29345e-07)
(0.317229 4.76037e-06 5.78511e-06)
(0.317214 7.15496e-06 1.98834e-05)
(0.317192 1.04097e-05 4.67701e-05)
(0.317162 1.43978e-05 8.60664e-05)
(0.317142 1.76429e-05 0.000125665)
(0.317244 1.28778e-06 -2.27017e-06)
(0.317239 2.51956e-06 -3.08141e-07)
(0.31723 4.01178e-06 5.37221e-06)
(0.317216 5.92598e-06 1.90094e-05)
(0.317194 8.38655e-06 4.5105e-05)
(0.317164 1.12348e-05 8.33434e-05)
(0.317144 1.34784e-05 0.000122071)
(0.317245 1.0335e-06 -2.32394e-06)
(0.31724 2.0831e-06 -4.5291e-07)
(0.317231 3.30947e-06 5.05864e-06)
(0.317217 4.81432e-06 1.83893e-05)
(0.317195 6.65462e-06 4.39898e-05)
(0.317166 8.68575e-06 8.16053e-05)
(0.317145 1.02406e-05 0.00011985)
(0.317246 8.05052e-07 -2.36087e-06)
(0.317241 1.66759e-06 -5.54204e-07)
(0.317232 2.64668e-06 4.84901e-06)
(0.317218 3.80334e-06 1.79983e-05)
(0.317197 5.15699e-06 4.33232e-05)
(0.317167 6.58878e-06 8.06107e-05)
(0.317147 7.65553e-06 0.000118614)
(0.317247 6.00172e-07 -2.38387e-06)
(0.317242 1.27246e-06 -6.20616e-07)
(0.317233 2.01912e-06 4.71606e-06)
(0.317219 2.87544e-06 1.77629e-05)
(0.317198 3.84311e-06 4.29421e-05)
(0.317168 4.83178e-06 8.00667e-05)
(0.317148 5.55129e-06 0.000117958)
(1.19748 -1.54422e-06 -9.85601e-06)
(1.1975 -1.52643e-06 -7.62842e-06)
(1.19752 -1.46344e-06 -4.55023e-06)
(1.19753 -1.35437e-06 -1.52797e-06)
(1.19754 -1.2157e-06 4.95316e-07)
(1.19754 -1.06358e-06 1.30304e-06)
(1.19754 -9.07518e-07 1.28284e-06)
(1.19748 -9.37177e-07 -9.87863e-06)
(1.1975 -9.20754e-07 -7.6479e-06)
(1.19752 -8.76445e-07 -4.56499e-06)
(1.19753 -8.0734e-07 -1.53885e-06)
(1.19754 -7.23522e-07 4.8763e-07)
(1.19754 -6.33636e-07 1.29796e-06)
(1.19754 -5.42174e-07 1.27808e-06)
(1.19748 -3.12878e-07 -9.89042e-06)
(1.1975 -3.06276e-07 -7.65793e-06)
(1.19752 -2.90377e-07 -4.57247e-06)
(1.19753 -2.6676e-07 -1.54422e-06)
(1.19754 -2.38761e-07 4.83955e-07)
(1.19754 -2.09079e-07 1.29562e-06)
(1.19754 -1.79019e-07 1.27594e-06)
(1.19748 3.16942e-07 -9.89043e-06)
(1.1975 3.1107e-07 -7.65794e-06)
(1.19752 2.955e-07 -4.57248e-06)
(1.19753 2.71867e-07 -1.54423e-06)
(1.19754 2.43682e-07 4.83941e-07)
(1.19754 2.13728e-07 1.29561e-06)
(1.19754 1.83356e-07 1.27593e-06)
(1.19748 9.41295e-07 -9.87863e-06)
(1.1975 9.25639e-07 -7.64793e-06)
(1.19752 8.81683e-07 -4.56503e-06)
(1.19753 8.12565e-07 -1.53889e-06)
(1.19754 7.28546e-07 4.87589e-07)
(1.19754 6.38364e-07 1.29792e-06)
(1.19754 5.46564e-07 1.27806e-06)
(1.19748 1.54844e-06 -9.85602e-06)
(1.1975 1.5315e-06 -7.62846e-06)
(1.19752 1.46893e-06 -4.5503e-06)
(1.19753 1.35985e-06 -1.52805e-06)
(1.19754 1.22094e-06 4.95244e-07)
(1.19754 1.06847e-06 1.30298e-06)
(1.19754 9.12017e-07 1.2828e-06)
(0.670827 -6.01269e-06 -3.85091e-05)
(0.670862 -5.76868e-06 -3.39889e-05)
(0.670895 -5.28494e-06 -2.54289e-05)
(0.670918 -4.65598e-06 -1.53742e-05)
(0.670933 -3.97829e-06 -7.54268e-06)
(0.670943 -3.31636e-06 -3.1263e-06)
(0.670949 -2.70681e-06 -1.29218e-06)
(0.670828 -3.52519e-06 -3.8415e-05)
(0.670863 -3.38e-06 -3.38923e-05)
(0.670896 -3.09913e-06 -2.53365e-05)
(0.670918 -2.73828e-06 -1.52939e-05)
(0.670934 -2.35021e-06 -7.47701e-06)
(0.670943 -1.96947e-06 -3.07432e-06)
(0.670949 -1.61609e-06 -1.25267e-06)
(0.670828 -1.15906e-06 -3.8377e-05)
(0.670864 -1.11049e-06 -3.38522e-05)
(0.670896 -1.01818e-06 -2.52968e-05)
(0.670919 -9.00505e-07 -1.52583e-05)
(0.670934 -7.74197e-07 -7.44698e-06)
(0.670943 -6.50089e-07 -3.04991e-06)
(0.670949 -5.34506e-07 -1.23371e-06)
(0.670828 1.16889e-06 -3.8377e-05)
(0.670864 1.12144e-06 -3.38522e-05)
(0.670896 1.0295e-06 -2.52969e-05)
(0.670919 9.11623e-07 -1.52584e-05)
(0.670934 7.84785e-07 -7.44705e-06)
(0.670943 6.59994e-07 -3.04997e-06)
(0.670949 5.43687e-07 -1.23376e-06)
(0.670828 3.53519e-06 -3.84151e-05)
(0.670863 3.39118e-06 -3.38925e-05)
(0.670896 3.11072e-06 -2.53367e-05)
(0.670918 2.74965e-06 -1.52941e-05)
(0.670934 2.361e-06 -7.47722e-06)
(0.670943 1.97953e-06 -3.07451e-06)
(0.670949 1.62537e-06 -1.25283e-06)
(0.670827 6.02303e-06 -3.85093e-05)
(0.670862 5.78035e-06 -3.39892e-05)
(0.670895 5.29709e-06 -2.54293e-05)
(0.670918 4.66789e-06 -1.53746e-05)
(0.670933 3.98952e-06 -7.54305e-06)
(0.670943 3.32673e-06 -3.12663e-06)
(0.670949 2.71629e-06 -1.29245e-06)
(0.317109 -8.85674e-06 -7.35354e-05)
(0.31714 -8.38422e-06 -6.95877e-05)
(0.317168 -7.54889e-06 -5.75478e-05)
(0.31719 -6.53707e-06 -4.1052e-05)
(0.317209 -5.49377e-06 -2.65696e-05)
(0.317223 -4.50457e-06 -1.66791e-05)
(0.317233 -3.6101e-06 -1.0786e-05)
(0.31711 -5.17468e-06 -7.31258e-05)
(0.317141 -4.90191e-06 -6.91932e-05)
(0.317169 -4.4247e-06 -5.71939e-05)
(0.317191 -3.84838e-06 -4.07555e-05)
(0.317209 -3.25193e-06 -2.63326e-05)
(0.317223 -2.68199e-06 -1.64958e-05)
(0.317234 -2.16159e-06 -1.06463e-05)
(0.317111 -1.69863e-06 -7.29442e-05)
(0.317141 -1.60909e-06 -6.90171e-05)
(0.317169 -1.45374e-06 -5.70342e-05)
(0.317192 -1.26662e-06 -4.06196e-05)
(0.31721 -1.07273e-06 -2.62223e-05)
(0.317224 -8.86832e-07 -1.64089e-05)
(0.317234 -7.16319e-07 -1.05792e-05)
(0.317111 1.71111e-06 -7.29443e-05)
(0.317141 1.62259e-06 -6.90172e-05)
(0.317169 1.46744e-06 -5.70343e-05)
(0.317192 1.27991e-06 -4.06198e-05)
(0.31721 1.08529e-06 -2.62224e-05)
(0.317224 8.98518e-07 -1.64091e-05)
(0.317234 7.27102e-07 -1.05793e-05)
(0.31711 5.18739e-06 -7.31262e-05)
(0.317141 4.9157e-06 -6.91936e-05)
(0.317169 4.43871e-06 -5.71944e-05)
(0.317191 3.86196e-06 -4.0756e-05)
(0.317209 3.26471e-06 -2.63331e-05)
(0.317223 2.69383e-06 -1.64962e-05)
(0.317234 2.17247e-06 -1.06467e-05)
(0.317109 8.86991e-06 -7.3536e-05)
(0.31714 8.39861e-06 -6.95885e-05)
(0.317168 7.56355e-06 -5.75487e-05)
(0.31719 6.55123e-06 -4.10529e-05)
(0.317209 5.50701e-06 -2.65704e-05)
(0.317223 4.51672e-06 -1.66799e-05)
(0.317233 3.62117e-06 -1.07866e-05)
(1.19754 -7.61024e-07 9.3357e-07)
(1.19754 -6.27305e-07 5.41083e-07)
(1.19754 -5.06941e-07 1.80285e-07)
(1.19754 -4.01626e-07 -1.48361e-07)
(1.19754 -3.11056e-07 -4.87695e-07)
(1.19754 -2.33741e-07 -8.96861e-07)
(1.19754 -4.56167e-07 9.30851e-07)
(1.19754 -3.77307e-07 5.40664e-07)
(1.19754 -3.06104e-07 1.81027e-07)
(1.19754 -2.43391e-07 -1.46953e-07)
(1.19754 -1.88999e-07 -4.85691e-07)
(1.19754 -1.42013e-07 -8.94132e-07)
(1.19754 -1.50747e-07 9.29649e-07)
(1.19754 -1.24779e-07 5.40512e-07)
(1.19754 -1.01287e-07 1.81421e-07)
(1.19754 -8.05306e-08 -1.46239e-07)
(1.19754 -6.24477e-08 -4.84695e-07)
(1.19754 -4.67283e-08 -8.92798e-07)
(1.19754 1.54773e-07 9.29642e-07)
(1.19754 1.28512e-07 5.40504e-07)
(1.19754 1.04754e-07 1.81414e-07)
(1.19754 8.37682e-08 -1.46246e-07)
(1.19754 6.54943e-08 -4.84702e-07)
(1.19754 4.96253e-08 -8.92804e-07)
(1.19754 4.60227e-07 9.3083e-07)
(1.19754 3.81059e-07 5.40641e-07)
(1.19754 3.09578e-07 1.81005e-07)
(1.19754 2.46627e-07 -1.46973e-07)
(1.19754 1.92041e-07 -4.8571e-07)
(1.19754 1.44904e-07 -8.9415e-07)
(1.19754 7.65148e-07 9.33534e-07)
(1.19754 6.31088e-07 5.41043e-07)
(1.19754 5.10424e-07 1.80248e-07)
(1.19754 4.04857e-07 -1.48396e-07)
(1.19754 3.14088e-07 -4.87727e-07)
(1.19754 2.36625e-07 -8.96891e-07)
(0.670953 -2.15928e-06 -8.07575e-07)
(0.670955 -1.6771e-06 -8.7569e-07)
(0.670957 -1.25652e-06 -1.15978e-06)
(0.670959 -8.87662e-07 -1.56492e-06)
(0.67096 -5.58878e-07 -2.11963e-06)
(0.670962 -2.57168e-07 -2.88156e-06)
(0.670953 -1.29588e-06 -7.76677e-07)
(0.670956 -1.0114e-06 -8.51127e-07)
(0.670958 -7.61102e-07 -1.14078e-06)
(0.670959 -5.40035e-07 -1.5505e-06)
(0.670961 -3.41842e-07 -2.10884e-06)
(0.670962 -1.59196e-07 -2.87357e-06)
(0.670953 -4.29351e-07 -7.61617e-07)
(0.670956 -3.35528e-07 -8.3905e-07)
(0.670958 -2.52634e-07 -1.13137e-06)
(0.670959 -1.79151e-07 -1.5433e-06)
(0.670961 -1.13063e-07 -2.10343e-06)
(0.670962 -5.20054e-08 -2.86957e-06)
(0.670953 4.3782e-07 -7.61664e-07)
(0.670956 3.43341e-07 -8.39093e-07)
(0.670958 2.59876e-07 -1.13141e-06)
(0.670959 1.85917e-07 -1.54334e-06)
(0.670961 1.19455e-07 -2.10346e-06)
(0.670962 5.81229e-08 -2.86961e-06)
(0.670953 1.30441e-06 -7.76819e-07)
(0.670956 1.01923e-06 -8.51258e-07)
(0.670958 7.68341e-07 -1.1409e-06)
(0.670959 5.46787e-07 -1.55061e-06)
(0.670961 3.48218e-07 -2.10894e-06)
(0.670962 1.65302e-07 -2.87367e-06)
(0.670953 2.16791e-06 -8.07819e-07)
(0.670955 1.68497e-06 -8.75912e-07)
(0.670957 1.26376e-06 -1.15998e-06)
(0.670959 8.94382e-07 -1.5651e-06)
(0.67096 5.65216e-07 -2.11981e-06)
(0.670962 2.63249e-07 -2.88174e-06)
(0.31724 -2.82048e-06 -7.44696e-06)
(0.317245 -2.13102e-06 -5.51894e-06)
(0.317249 -1.52826e-06 -4.34521e-06)
(0.317251 -9.93611e-07 -3.61533e-06)
(0.317251 -5.0644e-07 -3.18121e-06)
(0.31725 -4.44662e-08 -2.90179e-06)
(0.317241 -1.69758e-06 -7.34282e-06)
(0.317246 -1.28863e-06 -5.44304e-06)
(0.317249 -9.28211e-07 -4.2915e-06)
(0.317251 -6.06536e-07 -3.57951e-06)
(0.317251 -3.12262e-07 -3.1606e-06)
(0.31725 -3.29344e-08 -2.89482e-06)
(0.317241 -5.63556e-07 -7.2922e-06)
(0.317246 -4.28308e-07 -5.40577e-06)
(0.317249 -3.08626e-07 -4.26491e-06)
(0.317251 -2.01464e-07 -3.56164e-06)
(0.317252 -1.03209e-07 -3.15019e-06)
(0.317251 -9.86527e-09 -2.89114e-06)
(0.317241 5.73474e-07 -7.29232e-06)
(0.317246 4.37441e-07 -5.40587e-06)
(0.317249 3.17083e-07 -4.26501e-06)
(0.317251 2.09364e-07 -3.56172e-06)
(0.317252 1.10677e-07 -3.15027e-06)
(0.317251 1.70221e-08 -2.89122e-06)
(0.317241 1.70754e-06 -7.34317e-06)
(0.317246 1.29777e-06 -5.44335e-06)
(0.317249 9.36656e-07 -4.29179e-06)
(0.317251 6.14414e-07 -3.57978e-06)
(0.317251 3.19709e-07 -3.16085e-06)
(0.31725 4.00787e-08 -2.89508e-06)
(0.31724 2.83054e-06 -7.44756e-06)
(0.317245 2.14018e-06 -5.51947e-06)
(0.317249 1.53668e-06 -4.34569e-06)
(0.317251 1.00144e-06 -3.61578e-06)
(0.317251 5.13843e-07 -3.18163e-06)
(0.31725 5.15835e-08 -2.90222e-06)
(1.19754 -1.67279e-07 -1.42891e-06)
(1.19754 -1.07766e-07 -2.06374e-06)
(1.19755 -4.88566e-08 -2.53703e-06)
(1.19755 1.83272e-08 -1.95075e-06)
(1.19755 1.0616e-07 1.75564e-06)
(1.19753 2.20065e-07 1.14445e-05)
(1.19751 3.28591e-07 2.76504e-05)
(1.19754 -1.00885e-07 -1.4252e-06)
(1.19754 -6.31347e-08 -2.05876e-06)
(1.19755 -2.4931e-08 -2.53056e-06)
(1.19755 1.87339e-08 -1.94293e-06)
(1.19755 7.41635e-08 1.76437e-06)
(1.19753 1.42876e-07 1.14543e-05)
(1.19751 2.0617e-07 2.76626e-05)
(1.19754 -3.28416e-08 -1.42342e-06)
(1.19754 -1.99457e-08 -2.05639e-06)
(1.19755 -6.78475e-09 -2.52744e-06)
(1.19755 8.32895e-09 -1.93921e-06)
(1.19755 2.72454e-08 1.76865e-06)
(1.19753 5.02198e-08 1.14595e-05)
(1.19751 7.1013e-08 2.76691e-05)
(1.19754 3.56296e-08 -1.42342e-06)
(1.19754 2.26686e-08 -2.0564e-06)
(1.19755 9.504e-09 -2.52747e-06)
(1.19755 -5.64116e-09 -1.93923e-06)
(1.19755 -2.45407e-08 1.76863e-06)
(1.19753 -4.75029e-08 1.14595e-05)
(1.19751 -6.84735e-08 2.76691e-05)
(1.19754 1.03668e-07 -1.42522e-06)
(1.19754 6.58387e-08 -2.05879e-06)
(1.19755 2.75507e-08 -2.5306e-06)
(1.19755 -1.60504e-08 -1.94296e-06)
(1.19755 -7.14244e-08 1.76434e-06)
(1.19753 -1.40112e-07 1.14543e-05)
(1.19751 -2.03587e-07 2.76625e-05)
(1.19754 1.70062e-07 -1.42894e-06)
(1.19754 1.10495e-07 -2.06376e-06)
(1.19755 5.15631e-08 -2.53702e-06)
(1.19755 -1.5568e-08 -1.95078e-06)
(1.19755 -1.03326e-07 1.75558e-06)
(1.19753 -2.1719e-07 1.14444e-05)
(1.19751 -3.25908e-07 2.76503e-05)
(0.670963 3.17825e-08 -3.81986e-06)
(0.670963 3.24512e-07 -4.53299e-06)
(0.670962 6.40581e-07 -3.69697e-06)
(0.670957 9.99214e-07 1.76928e-06)
(0.670943 1.41413e-06 1.67088e-05)
(0.670912 1.85967e-06 4.48997e-05)
(0.670886 2.20886e-06 8.13918e-05)
(0.670963 1.6143e-08 -3.81432e-06)
(0.670963 1.93646e-07 -4.53038e-06)
(0.670962 3.84121e-07 -3.69899e-06)
(0.670957 5.97535e-07 1.76039e-06)
(0.670943 8.39735e-07 1.66895e-05)
(0.670912 1.09426e-06 4.48704e-05)
(0.670886 1.2907e-06 8.13591e-05)
(0.670963 6.70502e-09 -3.81156e-06)
(0.670964 6.61449e-08 -4.52902e-06)
(0.670963 1.29764e-07 -3.69964e-06)
(0.670958 2.00637e-07 1.75684e-06)
(0.670943 2.80338e-07 1.6682e-05)
(0.670912 3.63217e-07 4.48597e-05)
(0.670887 4.26609e-07 8.1348e-05)
(0.670963 -7.6468e-10 -3.8116e-06)
(0.670964 -6.02906e-08 -4.52906e-06)
(0.670963 -1.23909e-07 -3.69971e-06)
(0.670958 -1.94724e-07 1.75678e-06)
(0.670943 -2.74318e-07 1.66819e-05)
(0.670912 -3.57167e-07 4.48596e-05)
(0.670887 -4.20944e-07 8.13479e-05)
(0.670963 -1.02029e-08 -3.81443e-06)
(0.670963 -1.87777e-07 -4.53051e-06)
(0.670962 -3.78241e-07 -3.69915e-06)
(0.670957 -5.91547e-07 1.76022e-06)
(0.670943 -8.33602e-07 1.66893e-05)
(0.670912 -1.08808e-06 4.48702e-05)
(0.670886 -1.28491e-06 8.13589e-05)
(0.670963 -2.58378e-08 -3.82004e-06)
(0.670963 -3.18589e-07 -4.53318e-06)
(0.670962 -6.34576e-07 -3.69716e-06)
(0.670957 -9.93034e-07 1.769e-06)
(0.670943 -1.40774e-06 1.67084e-05)
(0.670912 -1.8532e-06 4.48993e-05)
(0.670886 -2.20281e-06 8.13914e-05)
(0.317247 4.14876e-07 -2.39737e-06)
(0.317242 8.95364e-07 -6.62528e-07)
(0.317234 1.42077e-06 4.63401e-06)
(0.31722 2.01057e-06 1.76238e-05)
(0.317199 2.6604e-06 4.27268e-05)
(0.317169 3.30792e-06 7.97719e-05)
(0.317149 3.77119e-06 0.000117612)
(0.317248 2.44239e-07 -2.40477e-06)
(0.317243 5.32471e-07 -6.87192e-07)
(0.317234 8.44515e-07 4.58635e-06)
(0.31722 1.18997e-06 1.75454e-05)
(0.317199 1.56445e-06 4.26099e-05)
(0.31717 1.93169e-06 7.96169e-05)
(0.317149 2.19163e-06 0.000117435)
(0.317248 8.2703e-08 -2.40807e-06)
(0.317243 1.78724e-07 -6.9868e-07)
(0.317234 2.82197e-07 4.56433e-06)
(0.317221 3.96001e-07 1.75099e-05)
(0.317199 5.18397e-07 4.2558e-05)
(0.31717 6.37471e-07 7.95496e-05)
(0.31715 7.2118e-07 0.000117359)
(0.317248 -7.574e-08 -2.40816e-06)
(0.317243 -1.71847e-07 -6.98778e-07)
(0.317234 -2.7531e-07 4.56421e-06)
(0.317221 -3.89015e-07 1.75098e-05)
(0.317199 -5.11271e-07 4.25579e-05)
(0.31717 -6.30331e-07 7.95494e-05)
(0.31715 -7.14523e-07 0.000117359)
(0.317248 -2.3727e-07 -2.40504e-06)
(0.317243 -5.25563e-07 -6.87492e-07)
(0.317234 -8.37564e-07 4.586e-06)
(0.31722 -1.18288e-06 1.7545e-05)
(0.317199 -1.55719e-06 4.26095e-05)
(0.31717 -1.9244e-06 7.96164e-05)
(0.317149 -2.18484e-06 0.000117435)
(0.317247 -4.07895e-07 -2.39783e-06)
(0.317242 -8.88383e-07 -6.63046e-07)
(0.317234 -1.41367e-06 4.63341e-06)
(0.31722 -2.00325e-06 1.7623e-05)
(0.317199 -2.65284e-06 4.2726e-05)
(0.317169 -3.30032e-06 7.9771e-05)
(0.317149 -3.76414e-06 0.000117612)
(1.19748 2.13004e-06 -9.83101e-06)
(1.1975 2.12622e-06 -7.60628e-06)
(1.19752 2.06159e-06 -4.53278e-06)
(1.19753 1.92126e-06 -1.51396e-06)
(1.19754 1.72779e-06 5.06196e-07)
(1.19754 1.50815e-06 1.311e-06)
(1.19754 1.28053e-06 1.29093e-06)
(1.19748 2.70331e-06 -9.83855e-06)
(1.1975 2.73043e-06 -7.61085e-06)
(1.19752 2.68198e-06 -4.53328e-06)
(1.19753 2.51608e-06 -1.50866e-06)
(1.19754 2.26202e-06 5.14808e-07)
(1.19754 1.96287e-06 1.32021e-06)
(1.19754 1.65235e-06 1.30309e-06)
(1.19748 3.35405e-06 -9.98093e-06)
(1.1975 3.42512e-06 -7.72911e-06)
(1.19752 3.39726e-06 -4.61337e-06)
(1.19753 3.19116e-06 -1.54825e-06)
(1.19754 2.84959e-06 5.03327e-07)
(1.19754 2.44357e-06 1.32447e-06)
(1.19754 2.03085e-06 1.3184e-06)
(1.19748 4.34698e-06 -1.04855e-05)
(1.1975 4.41593e-06 -8.15106e-06)
(1.19752 4.34887e-06 -4.90358e-06)
(1.19753 4.03219e-06 -1.70728e-06)
(1.19753 3.53183e-06 4.35071e-07)
(1.19754 2.96312e-06 1.30594e-06)
(1.19754 2.41447e-06 1.32526e-06)
(1.19747 6.56223e-06 -1.17147e-05)
(1.1975 6.28575e-06 -9.16438e-06)
(1.19752 5.85546e-06 -5.58456e-06)
(1.19753 5.1934e-06 -2.07858e-06)
(1.19753 4.37075e-06 2.70031e-07)
(1.19753 3.53657e-06 1.25008e-06)
(1.19753 2.79512e-06 1.31827e-06)
(1.19747 1.17288e-05 -1.39497e-05)
(1.19749 1.0233e-05 -1.09641e-05)
(1.19752 8.58386e-06 -6.73775e-06)
(1.19753 6.99302e-06 -2.6767e-06)
(1.19753 5.49604e-06 1.73614e-08)
(1.19753 4.20223e-06 1.16891e-06)
(1.19753 3.16722e-06 1.3088e-06)
(1.19747 1.77926e-05 -1.65855e-05)
(1.19749 1.55013e-05 -1.30365e-05)