/*--------------------------------*- C++ -*----------------------------------*\
  =========                 |
  \\      /  F ield         | OpenFOAM: The Open Source CFD Toolbox
   \\    /   O peration     | Website:  https://openfoam.org
    \\  /    A nd           | Version:  7
     \\/     M anipulation  |
\*---------------------------------------------------------------------------*/
FoamFile
{
    version     2.0;
    format      ascii;
    class       volScalarField;
    location    "3.25";
    object      p;
}
// * * * * * * * * * * * * * * * * * * * * * * * * * * * * * * * * * * * * * //

dimensions      [0 2 -2 0 0 0 0];

internalField   nonuniform List<scalar> 
7784
(
-1.65359e-10
-0.000186342
-0.000471448
-0.000718684
-0.000890689
-0.00101206
-0.00110673
-8.9121e-06
-0.000216066
-0.000502018
-0.000735092
-0.000896721
-0.00101408
-0.00110723
-6.65899e-05
-0.000266727
-0.000535287
-0.000752357
-0.00090507
-0.00101862
-0.00110951
-0.000104296
-0.000298151
-0.000556947
-0.000765428
-0.000912646
-0.00102281
-0.00111182
-0.00012708
-0.000317878
-0.000571735
-0.000775368
-0.000919019
-0.00102708
-0.00111397
-0.00014188
-0.000331117
-0.00058212
-0.000782748
-0.000924009
-0.00103051
-0.00111583
-0.000151294
-0.000339697
-0.000589096
-0.000787942
-0.000927672
-0.00103298
-0.00111731
-0.000286674
-0.00045671
-0.000669076
-0.00083661
-0.000955909
-0.00104908
-0.00112788
-0.000300995
-0.000478124
-0.000686008
-0.000844033
-0.000957471
-0.00104866
-0.00112688
-0.000333525
-0.000505764
-0.000703069
-0.000852185
-0.000961045
-0.00104991
-0.00112699
-0.00035506
-0.000523178
-0.000714738
-0.000859102
-0.000965056
-0.0010523
-0.00112801
-0.000368636
-0.000534859
-0.000723472
-0.00086494
-0.000968681
-0.00105414
-0.00112916
-0.000378107
-0.00054341
-0.00073021
-0.000869705
-0.000971814
-0.00105591
-0.00113028
-0.000384484
-0.000549321
-0.000735059
-0.000873305
-0.00097432
-0.00105755
-0.00113128
-0.00054705
-0.000661404
-0.000801063
-0.000915987
-0.00100616
-0.0010826
-0.00115036
-0.00055291
-0.000668988
-0.000805625
-0.000916658
-0.00100465
-0.00108057
-0.00114837
-0.000566253
-0.00068067
-0.000812879
-0.000919954
-0.0010058
-0.00108067
-0.0011479
-0.000576707
-0.000689636
-0.000819182
-0.000923764
-0.00100796
-0.0010818
-0.00114828
-0.000584201
-0.000696439
-0.000824438
-0.000927317
-0.00101018
-0.00108304
-0.00114889
-0.000589844
-0.000701803
-0.0008288
-0.000930446
-0.00101226
-0.0010843
-0.00114959
-0.000593843
-0.000705723
-0.000832119
-0.000932949
-0.00101402
-0.00108546
-0.00115026
-0.00118431
-0.00125115
-0.00131266
-0.0013726
-0.00143434
-0.00150151
-0.00118398
-0.00125043
-0.00131178
-0.00137165
-0.00143326
-0.00150013
-0.00118465
-0.00125026
-0.00131117
-0.00137072
-0.00143196
-0.00149825
-0.00118567
-0.00125042
-0.00131077
-0.00136987
-0.00143061
-0.00149618
-0.00118666
-0.00125067
-0.00131048
-0.0013691
-0.00142935
-0.00149432
-0.00118757
-0.00125095
-0.00131027
-0.00136845
-0.00142825
-0.00149268
-0.00118834
-0.00125121
-0.00131011
-0.00136793
-0.00142734
-0.00149134
-0.00119686
-0.00125911
-0.00131763
-0.00137544
-0.00143527
-0.00150013
-0.00119558
-0.00125781
-0.00131646
-0.00137438
-0.00143423
-0.00149897
-0.0011952
-0.00125712
-0.0013156
-0.00137334
-0.00143294
-0.00149722
-0.00119539
-0.00125685
-0.00131498
-0.00137241
-0.00143162
-0.00149535
-0.00119582
-0.00125675
-0.0013145
-0.00137156
-0.00143037
-0.00149358
-0.00119633
-0.00125676
-0.00131413
-0.00137084
-0.00142927
-0.00149202
-0.00119682
-0.00125683
-0.00131386
-0.00137026
-0.00142837
-0.00149075
-0.00121135
-0.00126762
-0.00132139
-0.0013748
-0.00142996
-0.00148886
-0.00120951
-0.00126603
-0.00132007
-0.0013737
-0.001429
-0.00148794
-0.00120874
-0.00126512
-0.0013191
-0.00137266
-0.00142781
-0.00148648
-0.00120861
-0.00126465
-0.00131839
-0.00137172
-0.0014266
-0.00148487
-0.00120871
-0.00126438
-0.00131782
-0.00137088
-0.00142544
-0.00148331
-0.00120895
-0.00126424
-0.00131738
-0.00137016
-0.00142441
-0.00148192
-0.00120923
-0.00126419
-0.00131706
-0.00136957
-0.00142356
-0.00148075
-0.00157875
-0.00167236
-0.00179082
-0.00194547
-0.00214189
-0.00233583
-0.002308
-0.00157672
-0.00166915
-0.00178528
-0.00193499
-0.00212548
-0.00232649
-0.00231616
-0.00157382
-0.00166465
-0.00177814
-0.00192351
-0.00210608
-0.00229897
-0.00228503
-0.00157083
-0.00166023
-0.00177152
-0.00191366
-0.00209147
-0.00227968
-0.0022634
-0.0015681
-0.00165636
-0.00176595
-0.0019056
-0.00208082
-0.00226665
-0.00224934
-0.00156577
-0.00165318
-0.00176152
-0.0018995
-0.00207313
-0.00225754
-0.00223962
-0.00156393
-0.00165073
-0.00175818
-0.00189509
-0.00206776
-0.00225136
-0.00223312
-0.00157401
-0.00166088
-0.00176498
-0.00189014
-0.00204243
-0.00218851
-0.00218994
-0.00157232
-0.00165838
-0.00176073
-0.00188172
-0.00202897
-0.00217947
-0.00219095
-0.00156972
-0.00165459
-0.00175489
-0.00187223
-0.00201414
-0.00215978
-0.00217076
-0.00156701
-0.00165081
-0.00174935
-0.00186427
-0.00200311
-0.00214611
-0.0021565
-0.00156453
-0.00164751
-0.00174466
-0.00185807
-0.0019949
-0.0021366
-0.0021469
-0.0015624
-0.00164481
-0.00174085
-0.00185319
-0.00198869
-0.00212956
-0.00213979
-0.0015607
-0.00164274
-0.00173793
-0.00184953
-0.00198421
-0.00212456
-0.00213475
-0.00155417
-0.00162898
-0.00171453
-0.00181103
-0.00191885
-0.0020123
-0.00201764
-0.0015531
-0.0016273
-0.00171177
-0.00180576
-0.00191057
-0.00200553
-0.00201265
-0.00155114
-0.00162433
-0.00170751
-0.0017993
-0.00190088
-0.0019938
-0.00200171
-0.00154894
-0.00162111
-0.00170317
-0.00179343
-0.00189311
-0.00198489
-0.00199333
-0.00154684
-0.00161809
-0.00169932
-0.00178848
-0.00188696
-0.00197817
-0.00198703
-0.00154496
-0.00161541
-0.00169607
-0.00178446
-0.00188211
-0.00197292
-0.00198206
-0.00154338
-0.00161317
-0.00169349
-0.00178137
-0.00187849
-0.00196905
-0.00197837
-0.000157042
-0.000345042
-0.000593593
-0.000791422
-0.000930206
-0.00103466
-0.0011184
-0.000160327
-0.000348152
-0.000596277
-0.000793555
-0.000931797
-0.00103573
-0.0011191
-0.000161823
-0.000349584
-0.000597531
-0.000794567
-0.000932562
-0.00103626
-0.00111944
-0.000161821
-0.000349583
-0.00059753
-0.000794566
-0.000932561
-0.00103626
-0.00111944
-0.000160323
-0.000348148
-0.000596273
-0.000793551
-0.000931794
-0.00103573
-0.0011191
-0.000157035
-0.000345034
-0.000593586
-0.000791416
-0.000930202
-0.00103465
-0.0011184
-0.000388527
-0.00055317
-0.000738334
-0.000875838
-0.000976158
-0.00105885
-0.00113205
-0.000390896
-0.000555478
-0.000740351
-0.000877439
-0.000977351
-0.00105971
-0.00113259
-0.00039199
-0.000556559
-0.000741311
-0.000878213
-0.000977935
-0.00106014
-0.00113286
-0.000391989
-0.000556558
-0.00074131
-0.000878212
-0.000977934
-0.00106014
-0.00113286
-0.000390892
-0.000555474
-0.000740348
-0.000877437
-0.000977348
-0.00105971
-0.00113259
-0.00038852
-0.000553163
-0.000738329
-0.000875833
-0.000976154
-0.00105885
-0.00113205
-0.000596475
-0.00070838
-0.00083445
-0.000934777
-0.00101536
-0.00108638
-0.00115082
-0.000598055
-0.000710015
-0.000835922
-0.000935962
-0.00101625
-0.00108702
-0.00115121
-0.000598794
-0.000710792
-0.000836632
-0.000936542
-0.0010167
-0.00108734
-0.00115141
-0.000598793
-0.000710791
-0.000836631
-0.000936541
-0.0010167
-0.00108734
-0.00115141
-0.000598052
-0.000710012
-0.00083592
-0.000935959
-0.00101625
-0.00108702
-0.00115121
-0.00059647
-0.000708375
-0.000834446
-0.000934773
-0.00101536
-0.00108638
-0.00115082
-0.00118893
-0.00125142
-0.00131001
-0.00136753
-0.00142665
-0.00149034
-0.00118932
-0.00125155
-0.00130994
-0.00136727
-0.0014262
-0.00148967
-0.00118951
-0.00125161
-0.00130991
-0.00136714
-0.00142597
-0.00148933
-0.00118951
-0.00125161
-0.00130991
-0.00136714
-0.00142597
-0.00148933
-0.00118931
-0.00125154
-0.00130994
-0.00136727
-0.00142619
-0.00148966
-0.00118893
-0.00125141
-0.00131001
-0.00136753
-0.00142665
-0.00149034
-0.00119721
-0.00125692
-0.00131367
-0.00136983
-0.00142768
-0.00148978
-0.00119749
-0.001257
-0.00131355
-0.00136954
-0.00142722
-0.00148913
-0.00119764
-0.00125703
-0.0013135
-0.0013694
-0.00142699
-0.00148881
-0.00119764
-0.00125703
-0.0013135
-0.0013694
-0.00142699
-0.00148881
-0.00119749
-0.00125699
-0.00131355
-0.00136954
-0.00142722
-0.00148913
-0.00119721
-0.00125692
-0.00131367
-0.00136983
-0.00142768
-0.00148978
-0.00120948
-0.00126418
-0.00131683
-0.00136913
-0.0014229
-0.00147985
-0.00120966
-0.00126419
-0.00131668
-0.00136884
-0.00142246
-0.00147925
-0.00120976
-0.0012642
-0.00131661
-0.0013687
-0.00142224
-0.00147895
-0.00120976
-0.0012642
-0.00131661
-0.0013687
-0.00142224
-0.00147895
-0.00120966
-0.00126419
-0.00131668
-0.00136884
-0.00142246
-0.00147925
-0.00120947
-0.00126418
-0.00131683
-0.00136913
-0.0014229
-0.00147985
-0.00156256
-0.00164894
-0.00175582
-0.00189205
-0.00206417
-0.00224734
-0.00222894
-0.00156165
-0.00164776
-0.0017543
-0.00189016
-0.00206197
-0.00224492
-0.00222645
-0.0015612
-0.00164717
-0.00175356
-0.00188925
-0.00206093
-0.00224377
-0.00222529
-0.0015612
-0.00164717
-0.00175356
-0.00188924
-0.00206092
-0.00224377
-0.00222529
-0.00156165
-0.00164776
-0.0017543
-0.00189016
-0.00206197
-0.00224491
-0.00222645
-0.00156256
-0.00164894
-0.00175581
-0.00189205
-0.00206417
-0.00224733
-0.00222893
-0.00155943
-0.00164122
-0.00173582
-0.00184694
-0.00198113
-0.0021212
-0.00213139
-0.00155857
-0.00164013
-0.00173445
-0.0018453
-0.00197921
-0.00211913
-0.00212934
-0.00155814
-0.00163958
-0.00173377
-0.0018445
-0.00197829
-0.00211814
-0.00212836
-0.00155814
-0.00163958
-0.00173377
-0.00184449
-0.00197829
-0.00211814
-0.00212836
-0.00155857
-0.00164013
-0.00173445
-0.00184529
-0.00197921
-0.00211912
-0.00212933
-0.00155943
-0.00164122
-0.00173582
-0.00184694
-0.00198113
-0.00212119
-0.00213138
-0.00154217
-0.0016115
-0.0016916
-0.00177915
-0.00187595
-0.00196637
-0.00197582
-0.00154138
-0.00161048
-0.00169038
-0.00177772
-0.00187434
-0.00196469
-0.00197422
-0.00154099
-0.00160999
-0.00168978
-0.00177703
-0.00187356
-0.00196388
-0.00197345
-0.00154099
-0.00160999
-0.00168978
-0.00177703
-0.00187356
-0.00196388
-0.00197345
-0.00154138
-0.00161048
-0.00169038
-0.00177772
-0.00187433
-0.00196469
-0.00197422
-0.00154217
-0.00161149
-0.0016916
-0.00177915
-0.00187594
-0.00196637
-0.00197581
-0.000151283
-0.000339686
-0.000589088
-0.000787935
-0.000927666
-0.00103298
-0.00111731
-0.000141866
-0.000331104
-0.000582108
-0.000782738
-0.000924001
-0.00103051
-0.00111583
-0.000127062
-0.000317862
-0.000571722
-0.000775356
-0.00091901
-0.00102707
-0.00111397
-0.000104274
-0.000298131
-0.000556932
-0.000765415
-0.000912636
-0.0010228
-0.00111182
-6.65646e-05
-0.000266705
-0.000535271
-0.000752343
-0.00090506
-0.00101861
-0.0011095
-8.8829e-06
-0.000216041
-0.000502003
-0.000735081
-0.000896713
-0.00101408
-0.00110722
2.67395e-08
-0.000186319
-0.000471437
-0.000718678
-0.000890685
-0.00101206
-0.00110673
-0.000384474
-0.000549312
-0.000735051
-0.000873299
-0.000974315
-0.00105754
-0.00113127
-0.000378094
-0.000543398
-0.000730201
-0.000869697
-0.000971808
-0.00105591
-0.00113028
-0.000368619
-0.000534845
-0.00072346
-0.00086493
-0.000968674
-0.00105413
-0.00112915
-0.000355037
-0.000523159
-0.000714725
-0.000859091
-0.000965048
-0.00105229
-0.001128
-0.000333494
-0.00050574
-0.000703053
-0.000852174
-0.000961037
-0.0010499
-0.00112699
-0.000300959
-0.000478096
-0.000685993
-0.000844024
-0.000957466
-0.00104866
-0.00112688
-0.000286637
-0.000456684
-0.000669065
-0.000836606
-0.000955909
-0.00104908
-0.00112788
-0.000593836
-0.000705716
-0.000832113
-0.000932944
-0.00101401
-0.00108545
-0.00115026
-0.000589834
-0.000701794
-0.000828792
-0.00093044
-0.00101225
-0.0010843
-0.00114959
-0.000584186
-0.000696427
-0.000824429
-0.00092731
-0.00101017
-0.00108303
-0.00114888
-0.000576687
-0.00068962
-0.000819171
-0.000923757
-0.00100796
-0.00108179
-0.00114828
-0.000566225
-0.00068065
-0.000812867
-0.000919946
-0.00100579
-0.00108066
-0.0011479
-0.000552876
-0.000668966
-0.000805614
-0.000916652
-0.00100465
-0.00108057
-0.00114837
-0.000547018
-0.000661384
-0.000801057
-0.000915987
-0.00100616
-0.0010826
-0.00115037
-0.00118834
-0.00125121
-0.00131011
-0.00136792
-0.00142734
-0.00149134
-0.00118757
-0.00125095
-0.00131026
-0.00136845
-0.00142824
-0.00149268
-0.00118666
-0.00125067
-0.00131048
-0.0013691
-0.00142935
-0.00149431
-0.00118567
-0.00125042
-0.00131077
-0.00136986
-0.00143061
-0.00149618
-0.00118464
-0.00125026
-0.00131117
-0.00137071
-0.00143196
-0.00149824
-0.00118398
-0.00125042
-0.00131178
-0.00137164
-0.00143326
-0.00150013
-0.00118431
-0.00125115
-0.00131266
-0.0013726
-0.00143434
-0.00150151
-0.00119681
-0.00125683
-0.00131386
-0.00137026
-0.00142837
-0.00149075
-0.00119633
-0.00125676
-0.00131413
-0.00137084
-0.00142927
-0.00149202
-0.00119582
-0.00125675
-0.00131449
-0.00137156
-0.00143037
-0.00149357
-0.00119539
-0.00125685
-0.00131498
-0.00137241
-0.00143161
-0.00149534
-0.0011952
-0.00125712
-0.0013156
-0.00137334
-0.00143293
-0.00149722
-0.00119558
-0.00125781
-0.00131646
-0.00137438
-0.00143423
-0.00149897
-0.00119686
-0.00125911
-0.00131763
-0.00137544
-0.00143527
-0.00150013
-0.00120922
-0.00126419
-0.00131706
-0.00136957
-0.00142355
-0.00148075
-0.00120895
-0.00126424
-0.00131738
-0.00137015
-0.00142441
-0.00148191
-0.00120871
-0.00126437
-0.00131782
-0.00137088
-0.00142544
-0.00148331
-0.0012086
-0.00126465
-0.00131839
-0.00137172
-0.00142659
-0.00148486
-0.00120874
-0.00126511
-0.0013191
-0.00137266
-0.00142781
-0.00148647
-0.00120951
-0.00126603
-0.00132007
-0.0013737
-0.00142899
-0.00148794
-0.00121135
-0.00126763
-0.0013214
-0.0013748
-0.00142996
-0.00148885
-0.00156392
-0.00165072
-0.00175818
-0.00189508
-0.00206775
-0.00225135
-0.00223311
-0.00156577
-0.00165318
-0.00176151
-0.00189949
-0.00207312
-0.00225752
-0.00223961
-0.00156809
-0.00165635
-0.00176594
-0.00190558
-0.00208081
-0.00226663
-0.00224932
-0.00157082
-0.00166022
-0.00177151
-0.00191364
-0.00209145
-0.00227965
-0.00226337
-0.00157381
-0.00166464
-0.00177813
-0.00192349
-0.00210606
-0.00229894
-0.00228499
-0.00157671
-0.00166914
-0.00178527
-0.00193496
-0.00212545
-0.00232645
-0.00231612
-0.00157875
-0.00167235
-0.0017908
-0.00194545
-0.00214186
-0.00233579
-0.00230796
-0.0015607
-0.00164274
-0.00173793
-0.00184952
-0.0019842
-0.00212455
-0.00213474
-0.00156239
-0.0016448
-0.00174085
-0.00185318
-0.00198868
-0.00212954
-0.00213978
-0.00156452
-0.0016475
-0.00174465
-0.00185805
-0.00199488
-0.00213659
-0.00214688
-0.00156701
-0.00165081
-0.00174934
-0.00186426
-0.00200309
-0.00214609
-0.00215647
-0.00156971
-0.00165458
-0.00175488
-0.00187222
-0.00201412
-0.00215975
-0.00217072
-0.00157231
-0.00165837
-0.00176072
-0.0018817
-0.00202895
-0.00217944
-0.00219091
-0.00157401
-0.00166088
-0.00176497
-0.00189013
-0.00204241
-0.00218848
-0.0021899
-0.00154337
-0.00161316
-0.00169349
-0.00178137
-0.00187848
-0.00196904
-0.00197836
-0.00154496
-0.0016154
-0.00169606
-0.00178446
-0.0018821
-0.00197291
-0.00198204
-0.00154684
-0.00161808
-0.00169931
-0.00178847
-0.00188694
-0.00197815
-0.00198701
-0.00154894
-0.0016211
-0.00170316
-0.00179341
-0.00189309
-0.00198487
-0.00199331
-0.00155113
-0.00162432
-0.0017075
-0.00179929
-0.00190086
-0.00199377
-0.00200168
-0.00155309
-0.0016273
-0.00171176
-0.00180574
-0.00191054
-0.0020055
-0.00201261
-0.00155417
-0.00162898
-0.00171452
-0.00181101
-0.00191883
-0.00201227
-0.0020176
-0.000766159
-0.000825082
-0.000909458
-0.000989577
-0.00105866
-0.0011202
-0.00117638
-0.000763969
-0.000823717
-0.000908432
-0.000987694
-0.00105609
-0.00111762
-0.00117407
-0.000767143
-0.000827413
-0.000911026
-0.000988597
-0.0010559
-0.00111692
-0.00117313
-0.000771334
-0.000831676
-0.000914284
-0.000990527
-0.00105686
-0.00111724
-0.00117301
-0.000774829
-0.000835256
-0.000917213
-0.000992514
-0.00105805
-0.00111783
-0.00117317
-0.000777658
-0.000838255
-0.000919792
-0.0009944
-0.00105929
-0.00111856
-0.00117349
-0.000779777
-0.000840568
-0.000921861
-0.000995996
-0.00106041
-0.00111927
-0.00117386
-0.00094121
-0.000963022
-0.00100985
-0.00106273
-0.0011124
-0.00115918
-0.00120362
-0.000936366
-0.000958462
-0.00100676
-0.00105978
-0.00110934
-0.00115637
-0.00120121
-0.000935329
-0.000958485
-0.00100682
-0.00105917
-0.00110826
-0.00115514
-0.00119997
-0.00093615
-0.000959908
-0.00100801
-0.00105972
-0.00110831
-0.00115487
-0.00119948
-0.00093712
-0.000961299
-0.00100928
-0.00106055
-0.00110871
-0.00115493
-0.0011993
-0.000938051
-0.000962616
-0.00101054
-0.00106148
-0.00110929
-0.0011552
-0.00119931
-0.000938832
-0.000963726
-0.00101164
-0.00106235
-0.00110988
-0.00115554
-0.00119943
-0.00108136
-0.00108001
-0.00110074
-0.00113179
-0.00116442
-0.00119764
-0.0012309
-0.00107665
-0.00107476
-0.00109689
-0.00112837
-0.00116122
-0.00119485
-0.00122858
-0.00107402
-0.001073
-0.00109547
-0.00112682
-0.00115963
-0.00119335
-0.0012272
-0.00107305
-0.0010727
-0.00109529
-0.00112645
-0.00115908
-0.00119269
-0.00122648
-0.00107251
-0.00107267
-0.00109547
-0.0011265
-0.00115892
-0.00119238
-0.00122606
-0.00107225
-0.00107286
-0.00109583
-0.00112676
-0.00115901
-0.00119231
-0.00122585
-0.00107215
-0.00107312
-0.00109623
-0.00112709
-0.0011592
-0.00119236
-0.00122578
-0.00119419
-0.00117743
-0.00118001
-0.00119445
-0.00121307
-0.00123444
-0.00125745
-0.00119032
-0.00117245
-0.00117611
-0.00119105
-0.00121004
-0.00123187
-0.00125532
-0.00118727
-0.00116995
-0.00117405
-0.00118909
-0.00120825
-0.00123029
-0.00125393
-0.00118545
-0.00116874
-0.0011731
-0.00118818
-0.00120736
-0.00122942
-0.0012531
-0.0011841
-0.00116791
-0.00117259
-0.00118775
-0.00120686
-0.00122887
-0.00125253
-0.00118314
-0.00116739
-0.00117238
-0.00118758
-0.00120662
-0.00122856
-0.00125217
-0.0011825
-0.00116711
-0.00117231
-0.00118753
-0.00120652
-0.00122841
-0.00125196
-0.00128486
-0.00125797
-0.00124777
-0.00124989
-0.00125733
-0.00126858
-0.00128244
-0.00128199
-0.00125351
-0.00124426
-0.00124689
-0.00125466
-0.00126632
-0.00128056
-0.00127905
-0.00125094
-0.0012421
-0.00124492
-0.00125291
-0.0012648
-0.00127925
-0.00127697
-0.00124937
-0.00124083
-0.00124379
-0.00125187
-0.00126384
-0.00127839
-0.00127534
-0.00124817
-0.00123998
-0.00124306
-0.00125116
-0.00126317
-0.00127775
-0.00127409
-0.00124732
-0.00123941
-0.00124259
-0.00125071
-0.00126272
-0.0012773
-0.0012732
-0.00124674
-0.00123905
-0.0012423
-0.00125043
-0.00126244
-0.001277
-0.00135689
-0.00132399
-0.00130505
-0.00129807
-0.00129664
-0.00129943
-0.00130532
-0.00135508
-0.00132026
-0.00130212
-0.00129557
-0.00129438
-0.0012975
-0.00130372
-0.00135256
-0.00131792
-0.00130016
-0.00129381
-0.00129279
-0.00129612
-0.00130253
-0.0013506
-0.00131633
-0.00129885
-0.00129264
-0.00129173
-0.00129518
-0.0013017
-0.00134901
-0.00131508
-0.00129786
-0.00129177
-0.00129095
-0.00129446
-0.00130105
-0.00134775
-0.00131413
-0.00129713
-0.00129116
-0.0012904
-0.00129395
-0.00130057
-0.0013468
-0.00131345
-0.00129662
-0.00129073
-0.00129002
-0.00129359
-0.00130022
-0.00122822
-0.00127705
-0.00132429
-0.00137135
-0.00141952
-0.00147044
-0.00122623
-0.0012754
-0.00132298
-0.00137032
-0.00141875
-0.00146978
-0.0012252
-0.00127437
-0.00132199
-0.00136935
-0.00141774
-0.00146864
-0.00122479
-0.00127377
-0.00132125
-0.00136848
-0.00141668
-0.00146732
-0.00122462
-0.00127336
-0.00132064
-0.00136768
-0.00141567
-0.00146603
-0.00122463
-0.0012731
-0.00132017
-0.001367
-0.00141476
-0.00146484
-0.00122471
-0.00127295
-0.00131981
-0.00136645
-0.001414
-0.00146384
-0.00124589
-0.00128655
-0.00132634
-0.00136606
-0.0014064
-0.00144815
-0.00124389
-0.00128494
-0.0013251
-0.00136513
-0.00140576
-0.00144771
-0.00124271
-0.00128386
-0.00132414
-0.00136426
-0.00140493
-0.00144685
-0.00124209
-0.00128317
-0.0013234
-0.00136346
-0.00140405
-0.00144582
-0.00124173
-0.00128267
-0.00132278
-0.00136274
-0.00140319
-0.00144478
-0.00124154
-0.00128233
-0.0013223
-0.00136211
-0.00140241
-0.00144381
-0.00124147
-0.0012821
-0.00132193
-0.0013616
-0.00140175
-0.00144297
-0.0012637
-0.00129598
-0.00132795
-0.0013599
-0.001392
-0.0014245
-0.0012618
-0.00129448
-0.00132681
-0.00135908
-0.00139148
-0.00142421
-0.00126057
-0.00129341
-0.0013259
-0.00135829
-0.0013908
-0.00142359
-0.00125983
-0.00129268
-0.00132519
-0.00135758
-0.00139007
-0.00142279
-0.00125933
-0.00129213
-0.00132459
-0.00135693
-0.00138935
-0.00142197
-0.00125902
-0.00129172
-0.0013241
-0.00135636
-0.00138869
-0.00142119
-0.00125883
-0.00129144
-0.00132373
-0.0013559
-0.00138813
-0.00142051
-0.00128118
-0.00130522
-0.00132937
-0.0013535
-0.00137752
-0.00140119
-0.00127946
-0.00130387
-0.00132836
-0.0013528
-0.0013771
-0.001401
-0.00127826
-0.00130286
-0.00132753
-0.00135212
-0.00137654
-0.00140053
-0.00127748
-0.00130214
-0.00132686
-0.0013515
-0.00137594
-0.00139993
-0.00127691
-0.00130157
-0.00132629
-0.00135093
-0.00137535
-0.00139929
-0.00127651
-0.00130113
-0.00132582
-0.00135042
-0.00137479
-0.00139867
-0.00127624
-0.00130082
-0.00132546
-0.00135001
-0.00137432
-0.00139812
-0.00129782
-0.00131407
-0.00133071
-0.00134739
-0.00136372
-0.00137922
-0.00129631
-0.00131288
-0.00132983
-0.00134678
-0.00136336
-0.00137909
-0.00129519
-0.00131196
-0.00132908
-0.00134619
-0.0013629
-0.00137874
-0.00129441
-0.00131126
-0.00132847
-0.00134565
-0.00136241
-0.00137828
-0.00129381
-0.0013107
-0.00132794
-0.00134514
-0.00136191
-0.00137778
-0.00129337
-0.00131026
-0.0013275
-0.00134469
-0.00136145
-0.00137729
-0.00129305
-0.00130993
-0.00132715
-0.00134432
-0.00136105
-0.00137685
-0.00131321
-0.0013223
-0.00133198
-0.00134173
-0.00135099
-0.00135916
-0.0013119
-0.00132127
-0.00133122
-0.0013412
-0.00135068
-0.00135906
-0.0013109
-0.00132045
-0.00133056
-0.00134069
-0.0013503
-0.00135879
-0.00131017
-0.00131981
-0.00133001
-0.00134021
-0.00134989
-0.00135842
-0.00130958
-0.00131928
-0.00132952
-0.00133977
-0.00134947
-0.00135803
-0.00130913
-0.00131885
-0.00132912
-0.00133938
-0.00134909
-0.00135764
-0.00130879
-0.00131852
-0.00132879
-0.00133905
-0.00134875
-0.00135729
-0.00152534
-0.0015854
-0.00165033
-0.00171884
-0.00178826
-0.00183794
-0.00183356
-0.00152464
-0.00158446
-0.00164886
-0.0017161
-0.00178458
-0.00183583
-0.00183032
-0.00152319
-0.00158247
-0.00164612
-0.00171216
-0.00177914
-0.00183018
-0.00182577
-0.00152148
-0.00158014
-0.00164306
-0.00170817
-0.00177413
-0.0018249
-0.00182136
-0.00151979
-0.00157789
-0.0016402
-0.0017046
-0.00176989
-0.0018205
-0.0018175
-0.00151825
-0.00157588
-0.0016377
-0.00170158
-0.00176639
-0.00181688
-0.00181425
-0.00151694
-0.00157418
-0.00163567
-0.00169918
-0.00176367
-0.00181409
-0.00181172
-0.0014918
-0.00153737
-0.00158369
-0.00162891
-0.00167003
-0.00169127
-0.00167636
-0.00149145
-0.00153702
-0.00158319
-0.0016279
-0.00166902
-0.00169201
-0.00167547
-0.00149046
-0.00153578
-0.00158159
-0.00162568
-0.00166618
-0.00168954
-0.00167394
-0.00148919
-0.00153416
-0.00157954
-0.00162311
-0.00166309
-0.00168652
-0.00167172
-0.00148789
-0.00153253
-0.00157752
-0.00162067
-0.0016603
-0.00168378
-0.0016695
-0.00148668
-0.00153101
-0.00157568
-0.00161851
-0.00165788
-0.0016814
-0.0016675
-0.00148563
-0.00152972
-0.00157415
-0.00161674
-0.00165594
-0.00167948
-0.00166584
-0.00145731
-0.00148982
-0.00152052
-0.00154735
-0.00156778
-0.00157054
-0.00154718
-0.00145719
-0.00148983
-0.00152058
-0.00154724
-0.00156788
-0.00157201
-0.00154689
-0.00145654
-0.00148911
-0.00151971
-0.00154609
-0.00156646
-0.00157103
-0.0015465
-0.00145563
-0.00148801
-0.00151839
-0.00154448
-0.00156458
-0.00156932
-0.00154548
-0.00145465
-0.00148684
-0.001517
-0.00154285
-0.00156275
-0.00156761
-0.00154428
-0.00145372
-0.00148573
-0.00151568
-0.00154134
-0.00156111
-0.00156606
-0.00154309
-0.0014529
-0.00148475
-0.00151455
-0.00154007
-0.00155975
-0.00156477
-0.00154204
-0.00142406
-0.00144526
-0.00146317
-0.00147575
-0.00148116
-0.00147128
-0.00144028
-0.00142406
-0.00144544
-0.00146349
-0.00147607
-0.00148163
-0.00147266
-0.00143994
-0.00142365
-0.00144504
-0.00146307
-0.00147554
-0.00148099
-0.0014724
-0.00144004
-0.001423
-0.00144431
-0.00146224
-0.00147455
-0.00147984
-0.00147149
-0.0014397
-0.00142229
-0.0014435
-0.0014613
-0.00147347
-0.00147863
-0.00147048
-0.00143914
-0.00142158
-0.00144269
-0.00146038
-0.00147243
-0.00147752
-0.00146947
-0.00143846
-0.00142095
-0.00144196
-0.00145956
-0.00147154
-0.00147659
-0.00146861
-0.00143781
-0.00139326
-0.00140485
-0.00141246
-0.00141445
-0.00140918
-0.00138951
-0.00135216
-0.00139332
-0.00140509
-0.00141286
-0.00141487
-0.00140984
-0.00139097
-0.00135159
-0.00139306
-0.00140488
-0.00141268
-0.00141467
-0.00140962
-0.00139106
-0.00135178
-0.0013926
-0.0014044
-0.00141217
-0.00141409
-0.00140899
-0.0013906
-0.0013517
-0.00139207
-0.00140384
-0.00141154
-0.0014134
-0.00140825
-0.00138999
-0.00135141
-0.00139154
-0.00140325
-0.0014109
-0.00141271
-0.00140753
-0.00138937
-0.00135103
-0.00139106
-0.00140272
-0.00141032
-0.00141209
-0.00140691
-0.00138883
-0.00135065
-0.00136551
-0.00136904
-0.0013684
-0.00136229
-0.00134939
-0.00132301
-0.00128211
-0.00136558
-0.00136928
-0.00136877
-0.00136268
-0.00135001
-0.00132426
-0.001281
-0.0013654
-0.00136917
-0.00136872
-0.00136262
-0.00134997
-0.00132446
-0.00128109
-0.00136507
-0.00136885
-0.0013684
-0.00136229
-0.00134964
-0.00132425
-0.00128108
-0.00136468
-0.00136845
-0.00136799
-0.00136186
-0.00134921
-0.00132392
-0.00128092
-0.00136427
-0.00136803
-0.00136754
-0.0013614
-0.00134876
-0.00132355
-0.0012807
-0.0013639
-0.00136763
-0.00136713
-0.00136097
-0.00134834
-0.0013232
-0.00128047
-0.000781228
-0.000842199
-0.000923368
-0.000997204
-0.0010613
-0.00111986
-0.0011742
-0.000782122
-0.000843228
-0.000924343
-0.000998005
-0.00106191
-0.00112028
-0.00117444
-0.000782545
-0.000843724
-0.000924819
-0.000998403
-0.00106221
-0.0011205
-0.00117457
-0.000782544
-0.000843723
-0.000924818
-0.000998402
-0.00106221
-0.0011205
-0.00117457
-0.000782119
-0.000843226
-0.000924341
-0.000998004
-0.00106191
-0.00112028
-0.00117444
-0.000781225
-0.000842195
-0.000923365
-0.000997201
-0.0010613
-0.00111986
-0.00117419
-0.0009394
-0.000964551
-0.00101248
-0.00106304
-0.00111038
-0.00115585
-0.00119957
-0.000939762
-0.000965088
-0.00101304
-0.00106351
-0.00111074
-0.00115608
-0.00119969
-0.000939936
-0.000965352
-0.00101332
-0.00106375
-0.00111092
-0.0011562
-0.00119975
-0.000939935
-0.000965352
-0.00101332
-0.00106375
-0.00111092
-0.0011562
-0.00119975
-0.00093976
-0.000965087
-0.00101304
-0.00106351
-0.00111074
-0.00115608
-0.00119969
-0.000939397
-0.000964548
-0.00101248
-0.00106304
-0.00111038
-0.00115585
-0.00119957
-0.00107211
-0.00107336
-0.00109657
-0.00112738
-0.0011594
-0.00119245
-0.00122577
-0.0010721
-0.00107353
-0.00109681
-0.0011276
-0.00115955
-0.00119254
-0.00122578
-0.00107209
-0.00107362
-0.00109693
-0.0011277
-0.00115963
-0.00119258
-0.00122579
-0.00107209
-0.00107362
-0.00109693
-0.0011277
-0.00115963
-0.00119258
-0.00122579
-0.0010721
-0.00107353
-0.00109681
-0.00112759
-0.00115955
-0.00119254
-0.00122578
-0.00107211
-0.00107336
-0.00109657
-0.00112738
-0.0011594
-0.00119245
-0.00122577
-0.00118208
-0.00116696
-0.0011723
-0.00118754
-0.0012065
-0.00122834
-0.00125184
-0.00118182
-0.00116689
-0.00117231
-0.00118756
-0.0012065
-0.00122831
-0.00125177
-0.0011817
-0.00116686
-0.00117232
-0.00118758
-0.0012065
-0.0012283
-0.00125175
-0.0011817
-0.00116686
-0.00117232
-0.00118758
-0.0012065
-0.0012283
-0.00125175
-0.00118182
-0.00116689
-0.00117231
-0.00118756
-0.0012065
-0.00122831
-0.00125177
-0.00118208
-0.00116696
-0.0011723
-0.00118754
-0.0012065
-0.00122834
-0.00125184
-0.00127258
-0.00124637
-0.00123881
-0.00124212
-0.00125026
-0.00126226
-0.00127681
-0.00127219
-0.00124614
-0.00123868
-0.00124202
-0.00125016
-0.00126216
-0.00127669
-0.001272
-0.00124603
-0.00123862
-0.00124197
-0.00125012
-0.00126211
-0.00127664
-0.001272
-0.00124603
-0.00123862
-0.00124197
-0.00125012
-0.00126211
-0.00127664
-0.00127218
-0.00124614
-0.00123868
-0.00124201
-0.00125016
-0.00126216
-0.00127669
-0.00127258
-0.00124637
-0.00123881
-0.00124212
-0.00125026
-0.00126226
-0.00127681
-0.00134612
-0.00131297
-0.00129626
-0.00129044
-0.00128976
-0.00129335
-0.00129999
-0.00134568
-0.00131266
-0.00129604
-0.00129026
-0.0012896
-0.0012932
-0.00129984
-0.00134547
-0.00131251
-0.00129594
-0.00129017
-0.00128953
-0.00129313
-0.00129977
-0.00134547
-0.00131251
-0.00129594
-0.00129017
-0.00128953
-0.00129313
-0.00129977
-0.00134568
-0.00131266
-0.00129604
-0.00129026
-0.0012896
-0.0012932
-0.00129984
-0.00134612
-0.00131297
-0.00129626
-0.00129044
-0.00128976
-0.00129335
-0.00129999
-0.00151593
-0.0015729
-0.00163414
-0.00169742
-0.00176171
-0.00181209
-0.00180991
-0.00151525
-0.00157205
-0.00163314
-0.00169626
-0.00176044
-0.00181081
-0.00180874
-0.00151491
-0.00157163
-0.00163264
-0.00169569
-0.00175982
-0.00181018
-0.00180817
-0.00151491
-0.00157163
-0.00163264
-0.00169569
-0.00175981
-0.00181018
-0.00180817
-0.00151525
-0.00157205
-0.00163314
-0.00169626
-0.00176044
-0.00181081
-0.00180873
-0.00151593
-0.00157289
-0.00163414
-0.00169741
-0.0017617
-0.00181209
-0.0018099
-0.00148481
-0.00152872
-0.00157297
-0.0016154
-0.0016545
-0.00167805
-0.00166461
-0.00148426
-0.00152804
-0.00157218
-0.00161452
-0.00165354
-0.00167712
-0.00166379
-0.00148397
-0.0015277
-0.00157179
-0.00161407
-0.00165307
-0.00167666
-0.00166339
-0.00148397
-0.0015277
-0.00157179
-0.00161407
-0.00165307
-0.00167665
-0.00166339
-0.00148425
-0.00152804
-0.00157218
-0.00161451
-0.00165354
-0.00167712
-0.00166379
-0.00148481
-0.00152872
-0.00157297
-0.0016154
-0.00165449
-0.00167805
-0.0016646
-0.00145225
-0.00148398
-0.00151367
-0.00153909
-0.00155872
-0.00156379
-0.00154122
-0.00145181
-0.00148346
-0.00151307
-0.00153844
-0.00155803
-0.00156313
-0.00154066
-0.00145158
-0.00148319
-0.00151277
-0.0015381
-0.00155769
-0.0015628
-0.00154038
-0.00145158
-0.00148319
-0.00151277
-0.0015381
-0.00155768
-0.00156279
-0.00154038
-0.00145181
-0.00148346
-0.00151307
-0.00153843
-0.00155803
-0.00156312
-0.00154066
-0.00145225
-0.00148398
-0.00151367
-0.00153909
-0.00155872
-0.00156378
-0.00154121
-0.00142045
-0.00144138
-0.00145891
-0.00147084
-0.00147587
-0.00146794
-0.00143728
-0.0014201
-0.00144098
-0.00145847
-0.00147036
-0.00147539
-0.00146748
-0.00143692
-0.00141992
-0.00144078
-0.00145824
-0.00147012
-0.00147514