/*--------------------------------*- C++ -*----------------------------------*\
  =========                 |
  \\      /  F ield         | OpenFOAM: The Open Source CFD Toolbox
   \\    /   O peration     | Website:  https://openfoam.org
    \\  /    A nd           | Version:  7
     \\/     M anipulation  |
\*---------------------------------------------------------------------------*/
FoamFile
{
    version     2.0;
    format      ascii;
    class       volVectorField;
    location    "3.25";
    object      U;
}
// * * * * * * * * * * * * * * * * * * * * * * * * * * * * * * * * * * * * * //

dimensions      [0 1 -1 0 0 0 0];

internalField   nonuniform List<vector> 
7784
(
(1.11435 -5.48725e-05 -8.37581e-05)
(1.1144 -4.42986e-05 -6.30792e-05)
(1.11446 -2.87249e-05 -3.02483e-05)
(1.11449 -1.72083e-05 -7.73279e-06)
(1.1145 -1.06862e-05 1.26485e-06)
(1.1145 -6.90978e-06 3.41045e-06)
(1.1145 -4.51787e-06 3.10044e-06)
(1.11437 -4.12254e-05 -6.53041e-05)
(1.11442 -3.27675e-05 -4.98042e-05)
(1.11447 -2.15128e-05 -2.388e-05)
(1.1145 -1.39069e-05 -5.46177e-06)
(1.1145 -9.60586e-06 1.9838e-06)
(1.1145 -6.76524e-06 3.63709e-06)
(1.1145 -4.7118e-06 3.13339e-06)
(1.11438 -2.08123e-05 -5.53626e-05)
(1.11443 -1.78682e-05 -4.22893e-05)
(1.11448 -1.36745e-05 -1.98707e-05)
(1.1145 -1.03341e-05 -3.80716e-06)
(1.1145 -7.89819e-06 2.61111e-06)
(1.1145 -5.922e-06 3.85991e-06)
(1.1145 -4.35637e-06 3.17669e-06)
(1.11438 -1.31353e-05 -5.13671e-05)
(1.11443 -1.19675e-05 -3.9109e-05)
(1.11448 -1.00128e-05 -1.80039e-05)
(1.1145 -8.11993e-06 -2.93499e-06)
(1.11451 -6.48183e-06 2.98553e-06)
(1.1145 -5.02979e-06 3.99205e-06)
(1.1145 -3.84645e-06 3.21098e-06)
(1.11439 -9.69821e-06 -4.99139e-05)
(1.11444 -8.96904e-06 -3.79033e-05)
(1.11448 -7.73359e-06 -1.72477e-05)
(1.1145 -6.45252e-06 -2.55467e-06)
(1.11451 -5.27739e-06 3.15796e-06)
(1.11451 -4.1975e-06 4.03327e-06)
(1.1145 -3.29263e-06 3.2201e-06)
(1.11439 -7.26101e-06 -4.94456e-05)
(1.11444 -6.74915e-06 -3.74993e-05)
(1.11449 -5.91554e-06 -1.69801e-05)
(1.11451 -5.02956e-06 -2.41118e-06)
(1.11451 -4.18632e-06 3.22851e-06)
(1.11451 -3.39456e-06 4.04932e-06)
(1.1145 -2.70711e-06 3.22223e-06)
(1.11439 -5.32759e-06 -4.93208e-05)
(1.11444 -4.9721e-06 -3.73806e-05)
(1.11449 -4.39994e-06 -1.68935e-05)
(1.11451 -3.78191e-06 -2.3597e-06)
(1.11451 -3.1805e-06 3.2568e-06)
(1.11451 -2.6079e-06 4.0522e-06)
(1.1145 -2.10603e-06 3.22241e-06)
(0.507876 -8.81102e-05 -0.000196905)
(0.507936 -7.37544e-05 -0.00015246)
(0.508008 -5.15133e-05 -8.39055e-05)
(0.508067 -3.30359e-05 -3.65634e-05)
(0.508103 -2.12135e-05 -1.47942e-05)
(0.508126 -1.38335e-05 -6.07109e-06)
(0.508142 -9.08244e-06 -2.89998e-06)
(0.507899 -7.54629e-05 -0.000163597)
(0.507959 -6.34929e-05 -0.000129097)
(0.508025 -4.57956e-05 -7.28497e-05)
(0.508077 -3.12085e-05 -3.24074e-05)
(0.508109 -2.13822e-05 -1.31853e-05)
(0.50813 -1.4694e-05 -5.37551e-06)
(0.508145 -1.00674e-05 -2.62896e-06)
(0.507918 -5.2842e-05 -0.000143145)
(0.507977 -4.61998e-05 -0.000113844)
(0.50804 -3.5955e-05 -6.45206e-05)
(0.508087 -2.65555e-05 -2.85611e-05)
(0.508116 -1.93074e-05 -1.13786e-05)
(0.508135 -1.38872e-05 -4.49325e-06)
(0.508148 -9.88343e-06 -2.21578e-06)
(0.50793 -3.82904e-05 -0.000133259)
(0.507989 -3.43819e-05 -0.000105965)
(0.50805 -2.80749e-05 -5.96454e-05)
(0.508095 -2.17914e-05 -2.59414e-05)
(0.508122 -1.65085e-05 -9.98793e-06)
(0.508139 -1.23174e-05 -3.75649e-06)
(0.508151 -9.03543e-06 -1.82075e-06)
(0.507938 -2.84683e-05 -0.000128611)
(0.507996 -2.58771e-05 -0.000102086)
(0.508056 -2.17212e-05 -5.70306e-05)
(0.5081 -1.74241e-05 -2.43834e-05)
(0.508126 -1.36233e-05 -9.07953e-06)
(0.508142 -1.04638e-05 -3.2423e-06)
(0.508154 -7.86876e-06 -1.51327e-06)
(0.507942 -2.09202e-05 -0.00012646)
(0.508 -1.91739e-05 -0.000100228)
(0.508061 -1.64196e-05 -5.56828e-05)
(0.508104 -1.35044e-05 -2.34995e-05)
(0.508129 -1.082e-05 -8.51141e-06)
(0.508145 -8.49377e-06 -2.88807e-06)
(0.508156 -6.51607e-06 -1.28423e-06)
(0.507945 -1.49679e-05 -0.000125443)
(0.508003 -1.381e-05 -9.93119e-05)
(0.508064 -1.19958e-05 -5.49684e-05)
(0.508107 -1.00408e-05 -2.29878e-05)
(0.508131 -8.1872e-06 -8.15434e-06)
(0.508147 -6.53303e-06 -2.64971e-06)
(0.508158 -5.08483e-06 -1.11889e-06)
(0.183348 -7.27513e-05 -0.000241796)
(0.183374 -6.26658e-05 -0.000203807)
(0.183415 -4.63465e-05 -0.000139261)
(0.183461 -3.15798e-05 -8.60267e-05)
(0.183498 -2.12164e-05 -5.27809e-05)
(0.183527 -1.42705e-05 -3.318e-05)
(0.183548 -9.57809e-06 -2.16843e-05)
(0.183362 -6.83875e-05 -0.00021714)
(0.183389 -5.92247e-05 -0.000185875)
(0.183427 -4.49769e-05 -0.000129495)
(0.183469 -3.20394e-05 -8.12571e-05)
(0.183504 -2.25211e-05 -5.02908e-05)
(0.183531 -1.57247e-05 -3.18194e-05)
(0.183551 -1.08894e-05 -2.09449e-05)
(0.183376 -5.52564e-05 -0.000197748)
(0.183403 -4.86848e-05 -0.000170745)
(0.18344 -3.85832e-05 -0.000120042)
(0.183479 -2.89323e-05 -7.58921e-05)
(0.183511 -2.12135e-05 -4.72316e-05)
(0.183536 -1.533e-05 -3.00567e-05)
(0.183555 -1.09308e-05 -1.99241e-05)
(0.183386 -4.31826e-05 -0.000185775)
(0.183414 -3.8622e-05 -0.000160839)
(0.18345 -3.16162e-05 -0.000113231)
(0.183487 -2.46265e-05 -7.16373e-05)
(0.183517 -1.86828e-05 -4.46349e-05)
(0.18354 -1.39153e-05 -2.84684e-05)
(0.183558 -1.0181e-05 -1.89534e-05)
(0.183393 -3.32273e-05 -0.000178726)
(0.183421 -3.00274e-05 -0.000154817)
(0.183457 -2.51614e-05 -0.000108833)
(0.183493 -2.01713e-05 -6.86929e-05)
(0.183522 -1.5737e-05 -4.27167e-05)
(0.183544 -1.20236e-05 -2.72154e-05)
(0.183561 -8.99233e-06 -1.81475e-05)
(0.183398 -2.49275e-05 -0.0001747)
(0.183426 -2.2712e-05 -0.000151299)
(0.183462 -1.93779e-05 -0.000106133)
(0.183497 -1.58878e-05 -6.67664e-05)
(0.183526 -1.26742e-05 -4.13813e-05)
(0.183548 -9.88278e-06 -2.62962e-05)
(0.183564 -7.52529e-06 -1.75252e-05)
(0.183401 -1.80475e-05 -0.000172393)
(0.183429 -1.65527e-05 -0.000149239)
(0.183465 -1.43127e-05 -0.000104481)
(0.1835 -1.19296e-05 -6.55245e-05)
(0.183528 -9.67542e-06 -4.04757e-05)
(0.18355 -7.66214e-06 -2.56442e-05)
(0.183566 -5.91529e-06 -1.70666e-05)
(1.1145 -2.98686e-06 2.12796e-06)
(1.1145 -1.96825e-06 1.13157e-06)
(1.1145 -1.23921e-06 2.75027e-07)
(1.1145 -6.7333e-07 -4.97162e-07)
(1.1145 -1.89713e-07 -1.31596e-06)
(1.11451 2.84761e-07 -2.3181e-06)
(1.1145 -3.29142e-06 2.10519e-06)
(1.1145 -2.28023e-06 1.10673e-06)
(1.1145 -1.51227e-06 2.62636e-07)
(1.1145 -9.00267e-07 -4.95146e-07)
(1.1145 -3.84793e-07 -1.29805e-06)
(1.11451 8.9761e-08 -2.29197e-06)
(1.1145 -3.18127e-06 2.1021e-06)
(1.1145 -2.28612e-06 1.10462e-06)
(1.1145 -1.57039e-06 2.64282e-07)
(1.1145 -9.86949e-07 -4.8851e-07)
(1.1145 -4.96995e-07 -1.28521e-06)
(1.11451 -6.80701e-08 -2.27432e-06)
(1.1145 -2.89609e-06 2.10881e-06)
(1.1145 -2.135e-06 1.11495e-06)
(1.1145 -1.50648e-06 2.74359e-07)
(1.1145 -9.84274e-07 -4.78707e-07)
(1.1145 -5.432e-07 -1.2745e-06)
(1.11451 -1.61365e-07 -2.2597e-06)
(1.1145 -2.53321e-06 2.1124e-06)
(1.1145 -1.90251e-06 1.12482e-06)
(1.1145 -1.36989e-06 2.84981e-07)
(1.1145 -9.19629e-07 -4.68582e-07)
(1.1145 -5.34945e-07 -1.26366e-06)
(1.11451 -1.99144e-07 -2.24665e-06)
(1.1145 -2.11451e-06 2.11428e-06)
(1.1145 -1.61037e-06 1.13303e-06)
(1.1145 -1.17724e-06 2.94409e-07)
(1.1145 -8.05615e-07 -4.59506e-07)
(1.1145 -4.8432e-07 -1.25417e-06)
(1.11451 -2.00892e-07 -2.23461e-06)
(1.1145 -1.66363e-06 2.1166e-06)
(1.1145 -1.28003e-06 1.13996e-06)
(1.1145 -9.46112e-07 3.02261e-07)
(1.1145 -6.56202e-07 -4.51961e-07)
(1.1145 -4.02797e-07 -1.24637e-06)
(1.11451 -1.76755e-07 -2.22528e-06)
(0.508153 -5.96223e-06 -2.01899e-06)
(0.508161 -3.83213e-06 -1.95344e-06)
(0.508166 -2.27439e-06 -2.17013e-06)
(0.508169 -1.02683e-06 -2.58627e-06)
(0.508171 1.01928e-07 -3.27311e-06)
(0.508171 1.28025e-06 -4.30076e-06)
(0.508155 -6.8463e-06 -1.92296e-06)
(0.508162 -4.54117e-06 -1.91507e-06)
(0.508167 -2.8026e-06 -2.14729e-06)
(0.50817 -1.39264e-06 -2.56436e-06)
(0.508172 -1.33057e-07 -3.24557e-06)
(0.508172 1.13118e-06 -4.28498e-06)
(0.508157 -6.93173e-06 -1.7185e-06)
(0.508164 -4.71381e-06 -1.80002e-06)
(0.508168 -2.99141e-06 -2.0793e-06)
(0.508171 -1.57312e-06 -2.5235e-06)
(0.508173 -3.1105e-07 -3.22371e-06)
(0.508173 9.25598e-07 -4.29147e-06)
(0.50816 -6.50108e-06 -1.49401e-06)
(0.508166 -4.51864e-06 -1.66048e-06)
(0.50817 -2.93393e-06 -1.99384e-06)
(0.508172 -1.60636e-06 -2.47456e-06)
(0.508174 -4.20794e-07 -3.20302e-06)
(0.508174 7.26502e-07 -4.30193e-06)
(0.508162 -5.78163e-06 -1.30126e-06)
(0.508167 -4.09398e-06 -1.53285e-06)
(0.508171 -2.70853e-06 -1.91206e-06)
(0.508174 -1.52795e-06 -2.42622e-06)
(0.508175 -4.66532e-07 -3.1816e-06)
(0.508175 5.54393e-07 -4.30911e-06)
(0.508164 -4.87043e-06 -1.14819e-06)
(0.508169 -3.50159e-06 -1.42658e-06)
(0.508172 -2.35199e-06 -1.84138e-06)
(0.508175 -1.35729e-06 -2.38294e-06)
(0.508176 -4.56992e-07 -3.16092e-06)
(0.508176 4.06757e-07 -4.31134e-06)
(0.508165 -3.85027e-06 -1.03175e-06)
(0.50817 -2.80098e-06 -1.34305e-06)
(0.508173 -1.90363e-06 -1.78432e-06)
(0.508176 -1.11728e-06 -2.34703e-06)
(0.508177 -4.01108e-07 -3.14275e-06)
(0.508177 2.84746e-07 -4.31037e-06)
(0.183564 -6.3666e-06 -1.47198e-05)
(0.183574 -4.08484e-06 -1.01392e-05)
(0.183581 -2.35689e-06 -6.85568e-06)
(0.183583 -9.24686e-07 -4.31358e-06)
(0.183583 4.16111e-07 -2.15693e-06)
(0.183579 1.84485e-06 -3.9804e-09)
(0.183566 -7.43671e-06 -1.43151e-05)
(0.183576 -4.89707e-06 -9.91302e-06)
(0.183582 -2.92909e-06 -6.73309e-06)
(0.183584 -1.28547e-06 -4.25878e-06)
(0.183584 2.34601e-07 -2.15705e-06)
(0.18358 1.80501e-06 -7.86698e-08)
(0.183568 -7.6455e-06 -1.37223e-05)
(0.183578 -5.1399e-06 -9.56992e-06)
(0.183583 -3.15126e-06 -6.54195e-06)
(0.183586 -1.47116e-06 -4.17217e-06)
(0.183585 7.42549e-08 -2.15896e-06)
(0.183581 1.63999e-06 -1.84924e-07)
(0.183571 -7.27503e-06 -1.31277e-05)
(0.18358 -4.98288e-06 -9.21185e-06)
(0.183585 -3.11892e-06 -6.33582e-06)
(0.183587 -1.52243e-06 -4.07488e-06)
(0.183586 -5.40017e-08 -2.15462e-06)
(0.183583 1.41297e-06 -2.84724e-07)
(0.183574 -6.54608e-06 -1.26118e-05)
(0.183582 -4.55746e-06 -8.88856e-06)
(0.183587 -2.90298e-06 -6.14332e-06)
(0.183588 -1.46623e-06 -3.97969e-06)
(0.183588 -1.41661e-07 -2.14392e-06)
(0.183584 1.16819e-06 -3.6418e-07)
(0.183576 -5.56357e-06 -1.21962e-05)
(0.183583 -3.92697e-06 -8.6188e-06)
(0.183588 -2.5378e-06 -5.97766e-06)
(0.18359 -1.31619e-06 -3.89411e-06)
(0.183589 -1.86379e-07 -2.12835e-06)
(0.183585 9.23508e-07 -4.21962e-07)
(0.183577 -4.42661e-06 -1.18796e-05)
(0.183585 -3.15865e-06 -8.40713e-06)
(0.183589 -2.06473e-06 -5.84428e-06)
(0.183591 -1.09263e-06 -3.82274e-06)
(0.18359 -1.90681e-07 -2.11167e-06)
(0.183586 6.9167e-07 -4.60945e-07)
(1.11451 8.05264e-07 -3.63443e-06)
(1.11452 1.46878e-06 -5.29722e-06)
(1.11452 2.39446e-06 -6.71096e-06)
(1.11453 3.99252e-06 -4.9425e-06)
(1.11451 8.27926e-06 8.58706e-06)
(1.11446 1.82334e-05 4.47093e-05)
(1.11442 2.87093e-05 9.74055e-05)
(1.11451 5.51358e-07 -3.60517e-06)
(1.11452 1.05262e-06 -5.274e-06)
(1.11452 1.6297e-06 -6.76207e-06)
(1.11453 2.46415e-06 -5.39678e-06)
(1.11452 5.03494e-06 6.71698e-06)
(1.11447 1.22794e-05 3.94833e-05)
(1.11442 2.06371e-05 8.83992e-05)
(1.11451 3.21354e-07 -3.58475e-06)
(1.11452 6.90011e-07 -5.2601e-06)
(1.11452 1.05998e-06 -6.81407e-06)
(1.11453 1.51175e-06 -5.77568e-06)
(1.11452 2.55066e-06 5.42692e-06)
(1.11447 5.39128e-06 3.63502e-05)
(1.11443 8.8792e-06 8.34414e-05)
(1.11451 1.78499e-07 -3.56699e-06)
(1.11452 4.85441e-07 -5.24277e-06)
(1.11452 7.82101e-07 -6.82535e-06)
(1.11453 1.13401e-06 -5.94075e-06)
(1.11452 1.77607e-06 4.86594e-06)
(1.11447 3.20957e-06 3.50331e-05)
(1.11443 4.95442e-06 8.14085e-05)
(1.11451 1.01026e-07 -3.54691e-06)
(1.11452 3.74959e-07 -5.21775e-06)
(1.11452 6.4465e-07 -6.80463e-06)
(1.11453 9.65805e-07 -5.97133e-06)
(1.11452 1.48211e-06 4.68192e-06)
(1.11447 2.40305e-06 3.45746e-05)
(1.11443 3.45947e-06 8.06954e-05)
(1.11451 5.6492e-08 -3.52802e-06)
(1.11452 2.97879e-07 -5.19301e-06)
(1.11452 5.40616e-07 -6.77826e-06)
(1.11453 8.27245e-07 -5.9596e-06)
(1.11452 1.23739e-06 4.64066e-06)
(1.11447 1.85762e-06 3.44452e-05)
(1.11443 2.52713e-06 8.04894e-05)
(1.11451 3.07802e-08 -3.51522e-06)
(1.11452 2.30826e-07 -5.17271e-06)
(1.11452 4.35155e-07 -6.75665e-06)
(1.11453 6.73304e-07 -5.94069e-06)
(1.11452 9.88336e-07 4.64336e-06)
(1.11447 1.41357e-06 3.44237e-05)
(1.11443 1.84668e-06 8.04508e-05)
(0.50817 2.69895e-06 -5.60204e-06)
(0.508166 4.65771e-06 -6.44792e-06)
(0.508159 7.58284e-06 -4.0644e-06)
(0.508143 1.249e-05 9.8022e-06)
(0.508104 2.2229e-05 5.27334e-05)
(0.508042 3.84244e-05 0.000140535)
(0.508017 5.18439e-05 0.00024616)
(0.508171 2.56093e-06 -5.62395e-06)
(0.508167 4.39853e-06 -6.58572e-06)
(0.50816 6.93687e-06 -4.55278e-06)
(0.508145 1.08144e-05 8.16532e-06)
(0.50811 1.83072e-05 4.76657e-05)
(0.508049 3.13462e-05 0.000128167)
(0.508021 4.2785e-05 0.000226351)
(0.508172 2.26633e-06 -5.68551e-06)
(0.508168 3.87708e-06 -6.77686e-06)
(0.508162 5.97067e-06 -5.09327e-06)
(0.508148 8.89267e-06 6.62729e-06)
(0.508114 1.36544e-05 4.37251e-05)
(0.508054 2.1001e-05 0.000119963)
(0.508024 2.75517e-05 0.00021428)
(0.508173 1.93885e-06 -5.74785e-06)
(0.50817 3.32479e-06 -6.93272e-06)
(0.508163 5.04076e-06 -5.46999e-06)
(0.50815 7.30598e-06 5.68276e-06)
(0.508117 1.05617e-05 4.15678e-05)
(0.508058 1.50259e-05 0.000115855)
(0.508027 1.89282e-05 0.000208514)
(0.508174 1.61616e-06 -5.79499e-06)
(0.508171 2.7882e-06 -7.03545e-06)
(0.508165 4.17913e-06 -5.68903e-06)
(0.508152 5.93329e-06 5.18334e-06)
(0.50812 8.24721e-06 4.05041e-05)
(0.508061 1.11562e-05 0.000113946)
(0.50803 1.36359e-05 0.000205911)
(0.508175 1.29229e-06 -5.82794e-06)
(0.508172 2.25284e-06 -7.10268e-06)
(0.508166 3.34748e-06 -5.81512e-06)
(0.508153 4.67025e-06 4.92325e-06)
(0.508121 6.30202e-06 3.99937e-05)
(0.508063 8.21297e-06 0.000113089)
(0.508031 9.80332e-06 0.00020478)
(0.508176 9.79147e-07 -5.84614e-06)
(0.508173 1.72682e-06 -7.14688e-06)
(0.508167 2.5517e-06 -5.89036e-06)
(0.508155 3.51486e-06 4.78335e-06)
(0.508123 4.64511e-06 3.97427e-05)
(0.508064 5.89819e-06 0.000112698)
(0.508033 6.91588e-06 0.000204288)
(0.183571 3.58467e-06 2.79383e-06)
(0.183557 5.94889e-06 7.89961e-06)
(0.183537 9.37753e-06 1.92834e-05)
(0.183507 1.46877e-05 4.54167e-05)
(0.183464 2.34666e-05 0.000100101)
(0.183422 3.51983e-05 0.00019136)
(0.183421 4.29165e-05 0.000285395)
(0.183572 3.62947e-06 2.59823e-06)
(0.183559 5.98296e-06 7.45821e-06)
(0.183539 9.21283e-06 1.83275e-05)
(0.18351 1.38837e-05 4.32678e-05)
(0.183469 2.13236e-05 9.48837e-05)
(0.183427 3.15146e-05 0.000180094)
(0.183423 3.86518e-05 0.000268366)
(0.183573 3.39461e-06 2.33369e-06)
(0.183561 5.55634e-06 6.9041e-06)
(0.183541 8.38434e-06 1.71992e-05)
(0.183513 1.22067e-05 4.09519e-05)
(0.183473 1.76387e-05 9.00918e-05)
(0.183432 2.45664e-05 0.000171269)
(0.183426 2.98038e-05 0.000256007)
(0.183575 3.0094e-06 2.08757e-06)
(0.183563 4.90469e-06 6.41985e-06)
(0.183544 7.27628e-06 1.62797e-05)
(0.183517 1.03173e-05 3.92085e-05)
(0.183477 1.42907e-05 8.68397e-05)
(0.183436 1.9011e-05 0.000165834)
(0.183429 2.26442e-05 0.000248791)
(0.183577 2.56038e-06 1.88833e-06)
(0.183564 4.16308e-06 6.04822e-06)
(0.183546 6.09036e-06 1.56196e-05)
(0.183519 8.4462e-06 3.80414e-05)
(0.183481 1.13379e-05 8.48294e-05)
(0.183439 1.45851e-05 0.000162683)
(0.183432 1.70726e-05 0.000244738)
(0.183578 2.08412e-06 1.73808e-06)
(0.183566 3.37844e-06 5.77776e-06)
(0.183548 4.88801e-06 1.51686e-05)
(0.183521 6.65627e-06 3.72966e-05)
(0.183483 8.71677e-06 8.36364e-05)
(0.183441 1.09245e-05 0.000160922)
(0.183434 1.25983e-05 0.000242538)
(0.183579 1.60465e-06 1.63423e-06)
(0.183567 2.59432e-06 5.58766e-06)
(0.183549 3.72181e-06 1.48671e-05)
(0.183523 4.99929e-06 3.68261e-05)
(0.183485 6.4293e-06 8.29284e-05)
(0.183443 7.90541e-06 0.000159934)
(0.183435 9.00995e-06 0.000241341)
(1.11439 -3.67163e-06 -4.92985e-05)
(1.11444 -3.43421e-06 -3.73502e-05)
(1.11449 -3.05393e-06 -1.68658e-05)
(1.11451 -2.64031e-06 -2.34016e-06)
(1.11451 -2.23384e-06 3.26851e-06)
(1.11451 -1.84412e-06 4.0481e-06)
(1.11451 -1.50209e-06 3.22201e-06)
(1.11439 -2.15519e-06 -4.93002e-05)
(1.11444 -2.0178e-06 -3.73437e-05)
(1.11449 -1.79899e-06 -1.68564e-05)
(1.11451 -1.56054e-06 -2.3318e-06)
(1.11451 -1.32525e-06 3.27419e-06)
(1.11451 -1.09918e-06 4.04514e-06)
(1.11451 -8.99386e-07 3.22169e-06)
(1.11439 -7.09774e-07 -4.93037e-05)
(1.11444 -6.64543e-07 -3.73428e-05)
(1.11449 -5.93017e-07 -1.68532e-05)
(1.11451 -5.15126e-07 -2.3284e-06)
(1.11451 -4.38162e-07 3.27674e-06)
(1.11451 -3.64157e-07 4.04388e-06)
(1.11451 -2.98443e-07 3.22142e-06)
(1.11439 7.12894e-07 -4.93037e-05)
(1.11444 6.68444e-07 -3.73428e-05)
(1.11449 5.97136e-07 -1.68532e-05)
(1.11451 5.19122e-07 -2.32841e-06)
(1.11451 4.41924e-07 3.27672e-06)
(1.11451 3.67636e-07 4.04387e-06)
(1.11451 3.0164e-07 3.22141e-06)
(1.11439 2.15838e-06 -4.93002e-05)
(1.11444 2.02181e-06 -3.73438e-05)
(1.11449 1.80322e-06 -1.68564e-05)
(1.11451 1.56464e-06 -2.33185e-06)
(1.11451 1.3291e-06 3.27414e-06)
(1.11451 1.10272e-06 4.04511e-06)
(1.11451 9.02619e-07 3.22166e-06)
(1.11439 3.67496e-06 -4.92986e-05)
(1.11444 3.43844e-06 -3.73503e-05)
(1.11449 3.05842e-06 -1.68659e-05)
(1.11451 2.64463e-06 -2.34025e-06)
(1.11451 2.23785e-06 3.26843e-06)
(1.11451 1.84778e-06 4.04805e-06)
(1.11451 1.5054e-06 3.22196e-06)
(0.507946 -1.00749e-05 -0.000124933)
(0.508005 -9.33808e-06 -9.88339e-05)
(0.508065 -8.18723e-06 -5.45727e-05)
(0.508108 -6.93265e-06 -2.26852e-05)
(0.508133 -5.72027e-06 -7.93107e-06)
(0.508148 -4.61697e-06 -2.49533e-06)
(0.508159 -3.63005e-06 -1.00499e-06)
(0.507947 -5.81726e-06 -0.000124673)
(0.508006 -5.40671e-06 -9.85834e-05)
(0.508067 -4.76713e-06 -5.43569e-05)
(0.50811 -4.06528e-06 -2.25129e-05)
(0.508134 -3.37905e-06 -7.79916e-06)
(0.508149 -2.74642e-06 -2.40127e-06)
(0.50816 -2.17377e-06 -9.33749e-07)
(0.507948 -1.90081e-06 -0.000124562)
(0.508007 -1.76856e-06 -9.8474e-05)
(0.508067 -1.56326e-06 -5.42604e-05)
(0.50811 -1.3374e-06 -2.24341e-05)
(0.508134 -1.11536e-06 -7.73758e-06)
(0.50815 -9.0937e-07 -2.35653e-06)
(0.50816 -7.21929e-07 -8.9956e-07)
(0.507948 1.90739e-06 -0.000124562)
(0.508007 1.77621e-06 -9.84741e-05)
(0.508067 1.57103e-06 -5.42605e-05)
(0.50811 1.34482e-06 -2.24342e-05)
(0.508134 1.12227e-06 -7.73763e-06)
(0.50815 9.15719e-07 -2.35657e-06)
(0.50816 7.27712e-07 -8.99602e-07)
(0.507947 5.82399e-06 -0.000124674)
(0.508006 5.41455e-06 -9.85836e-05)
(0.508067 4.77509e-06 -5.43571e-05)
(0.50811 4.07287e-06 -2.25131e-05)
(0.508134 3.38609e-06 -7.79934e-06)
(0.508149 2.75286e-06 -2.40142e-06)
(0.50816 2.1796e-06 -9.33874e-07)
(0.507946 1.00819e-05 -0.000124933)
(0.508005 9.34634e-06 -9.88342e-05)
(0.508065 8.19562e-06 -5.45731e-05)
(0.508108 6.94062e-06 -2.26855e-05)
(0.508133 5.72759e-06 -7.93138e-06)
(0.508148 4.62359e-06 -2.49558e-06)
(0.508159 3.63599e-06 -1.0052e-06)
(0.183403 -1.22188e-05 -0.000171057)
(0.183431 -1.12607e-05 -0.000148024)
(0.183467 -9.8269e-06 -0.000103476)
(0.183502 -8.2838e-06 -6.47393e-05)
(0.18353 -6.79674e-06 -3.98813e-05)
(0.183551 -5.44203e-06 -2.52006e-05)
(0.183567 -4.2432e-06 -1.67464e-05)
(0.183404 -7.07458e-06 -0.000170314)
(0.183433 -6.53974e-06 -0.00014734)
(0.183469 -5.74001e-06 -0.000102898)
(0.183504 -4.87306e-06 -6.42761e-05)
(0.183531 -4.02762e-06 -3.95218e-05)
(0.183553 -3.24744e-06 -2.49263e-05)
(0.183568 -2.54841e-06 -1.65443e-05)
(0.183404 -2.31436e-06 -0.00016998)
(0.183433 -2.14216e-06 -0.00014703)
(0.183469 -1.88515e-06 -0.000102633)
(0.183504 -1.60567e-06 -6.4061e-05)
(0.183532 -1.33159e-06 -3.93523e-05)
(0.183553 -1.07708e-06 -2.47953e-05)
(0.183569 -8.47669e-07 -1.64465e-05)
(0.183404 2.32199e-06 -0.00016998)
(0.183433 2.1507e-06 -0.000147031)
(0.183469 1.89367e-06 -0.000102633)
(0.183504 1.61374e-06 -6.40611e-05)
(0.183532 1.33905e-06 -3.93524e-05)
(0.183553 1.08388e-06 -2.47954e-05)
(0.183569 8.53834e-07 -1.64466e-05)
(0.183404 7.08236e-06 -0.000170314)
(0.183433 6.54847e-06 -0.00014734)
(0.183469 5.74873e-06 -0.000102898)
(0.183504 4.88129e-06 -6.42765e-05)
(0.183531 4.0352e-06 -3.95221e-05)
(0.183553 3.25433e-06 -2.49266e-05)
(0.183568 2.55461e-06 -1.65445e-05)
(0.183403 1.22269e-05 -0.000171058)
(0.183431 1.12699e-05 -0.000148024)
(0.183467 9.83604e-06 -0.000103477)
(0.183502 8.29238e-06 -6.474e-05)
(0.18353 6.80457e-06 -3.98819e-05)
(0.183551 5.44908e-06 -2.52012e-05)
(0.183567 4.2495e-06 -1.67468e-05)
(1.1145 -1.19561e-06 2.11877e-06)
(1.1145 -9.26745e-07 1.14544e-06)
(1.1145 -6.90199e-07 3.08293e-07)
(1.1145 -4.83014e-07 -4.4621e-07)
(1.11451 -3.0035e-07 -1.24049e-06)
(1.11451 -1.35913e-07 -2.21839e-06)
(1.1145 -7.19082e-07 2.12005e-06)
(1.1145 -5.59972e-07 1.14925e-06)
(1.1145 -4.19028e-07 3.12369e-07)
(1.1145 -2.948e-07 -4.42352e-07)
(1.11451 -1.84613e-07 -1.23657e-06)
(1.11451 -8.47942e-08 -2.21384e-06)
(1.1145 -2.39025e-07 2.12058e-06)
(1.1145 -1.86394e-07 1.15097e-06)
(1.1145 -1.39699e-07 3.14372e-07)
(1.1145 -9.83769e-08 -4.4043e-07)
(1.11451 -6.16012e-08 -1.23462e-06)
(1.11451 -2.81713e-08 -2.21159e-06)
(1.1145 2.41947e-07 2.12057e-06)
(1.1145 1.89065e-07 1.15096e-06)
(1.1145 1.42148e-07 3.14363e-07)
(1.1145 1.0064e-07 -4.40438e-07)
(1.11451 6.37134e-08 -1.23463e-06)
(1.11451 3.01701e-08 -2.21159e-06)
(1.1145 7.22025e-07 2.12003e-06)
(1.1145 5.62652e-07 1.14923e-06)
(1.1145 4.21477e-07 3.12344e-07)
(1.1145 2.97057e-07 -4.42375e-07)
(1.11451 1.86717e-07 -1.23659e-06)
(1.11451 8.67845e-08 -2.21386e-06)
(1.1145 1.19859e-06 2.11873e-06)
(1.1145 9.29436e-07 1.1454e-06)
(1.1145 6.92644e-07 3.08253e-07)
(1.1145 4.85258e-07 -4.46246e-07)
(1.11451 3.02438e-07 -1.24053e-06)
(1.11451 1.37884e-07 -2.21841e-06)
(0.508166 -2.77448e-06 -9.48456e-07)
(0.508171 -2.03542e-06 -1.28178e-06)
(0.508174 -1.39514e-06 -1.74168e-06)
(0.508176 -8.28659e-07 -2.31966e-06)
(0.508177 -3.10147e-07 -3.12842e-06)
(0.508177 1.86252e-07 -4.30837e-06)
(0.508167 -1.67149e-06 -8.95158e-07)
(0.508171 -1.2328e-06 -1.2417e-06)
(0.508175 -8.49499e-07 -1.71345e-06)
(0.508177 -5.08241e-07 -2.30128e-06)
(0.508178 -1.94797e-07 -3.11853e-06)
(0.508178 1.05292e-07 -4.30653e-06)
(0.508167 -5.56513e-07 -8.69241e-07)
(0.508172 -4.11308e-07 -1.22207e-06)
(0.508175 -2.83818e-07 -1.69946e-06)
(0.508177 -1.6998e-07 -2.29209e-06)
(0.508178 -6.52283e-08 -3.11354e-06)
(0.508178 3.50905e-08 -4.30551e-06)
(0.508167 5.61766e-07 -8.69278e-07)
(0.508172 4.16082e-07 -1.2221e-06)
(0.508175 2.88189e-07 -1.69949e-06)
(0.508177 1.74017e-07 -2.29212e-06)
(0.508178 6.90057e-08 -3.11356e-06)
(0.508178 -3.14952e-08 -4.30553e-06)
(0.508167 1.67676e-06 -8.95269e-07)
(0.508171 1.23758e-06 -1.2418e-06)
(0.508175 8.53859e-07 -1.71354e-06)
(0.508177 5.12262e-07 -2.30137e-06)
(0.508178 1.98556e-07 -3.11861e-06)
(0.508178 -1.01709e-07 -4.30659e-06)
(0.508166 2.7798e-06 -9.48641e-07)
(0.508171 2.0402e-06 -1.28195e-06)
(0.508174 1.39948e-06 -1.74184e-06)
(0.508176 8.3265e-07 -2.3198e-06)
(0.508177 3.13882e-07 -3.12857e-06)
(0.508177 -1.82691e-07 -4.30848e-06)
(0.183578 -3.20352e-06 -1.16529e-05)
(0.183586 -2.30424e-06 -8.25227e-06)
(0.18359 -1.51894e-06 -5.74472e-06)
(0.183592 -8.15485e-07 -3.76802e-06)
(0.183591 -1.61056e-07 -2.09692e-06)
(0.183587 4.77248e-07 -4.86145e-07)
(0.183579 -1.93498e-06 -1.15072e-05)
(0.183586 -1.399e-06 -8.15131e-06)
(0.183591 -9.27163e-07 -5.67889e-06)
(0.183592 -5.02216e-07 -3.73115e-06)
(0.183591 -1.06114e-07 -2.08599e-06)
(0.183587 2.79438e-07 -5.01087e-07)
(0.18358 -6.45179e-07 -1.1436e-05)
(0.183587 -4.6737e-07 -8.10151e-06)
(0.183591 -3.10195e-07 -5.64619e-06)
(0.183593 -1.6825e-07 -3.71264e-06)
(0.183591 -3.58018e-08 -2.08027e-06)
(0.183588 9.30264e-08 -5.08055e-07)
(0.18358 6.50744e-07 -1.14361e-05)
(0.183587 4.72401e-07 -8.10159e-06)
(0.183591 3.14768e-07 -5.64626e-06)
(0.183593 1.72445e-07 -3.71271e-06)
(0.183591 3.96941e-08 -2.08033e-06)
(0.183588 -8.93434e-08 -5.0811e-07)
(0.183579 1.94056e-06 -1.15074e-05)
(0.183586 1.40403e-06 -8.15153e-06)
(0.183591 9.31725e-07 -5.67909e-06)
(0.183592 5.0639e-07 -3.73133e-06)
(0.183591 1.09971e-07 -2.08616e-06)
(0.183587 -2.75765e-07 -5.0125e-07)
(0.183578 3.20913e-06 -1.16533e-05)
(0.183586 2.30926e-06 -8.25264e-06)
(0.18359 1.52348e-06 -5.74505e-06)
(0.183592 8.19637e-07 -3.76833e-06)
(0.183591 1.64951e-07 -2.09719e-06)
(0.183587 -4.73573e-07 -4.8642e-07)
(1.11451 1.65637e-08 -3.50632e-06)
(1.11452 1.656e-07 -5.15826e-06)
(1.11452 3.20115e-07 -6.74163e-06)
(1.11453 4.97942e-07 -5.92537e-06)
(1.11452 7.21972e-07 4.65431e-06)
(1.11447 1.0036e-06 3.44298e-05)
(1.11443 1.27794e-06 8.04568e-05)
(1.11451 8.35942e-09 -3.50082e-06)
(1.11452 9.99714e-08 -5.15055e-06)
(1.11452 1.9606e-07 -6.73282e-06)
(1.11453 3.05488e-07 -5.9158e-06)
(1.11452 4.3933e-07 4.6629e-06)
(1.11447 6.00796e-07 3.44385e-05)
(1.11443 7.53755e-07 8.04685e-05)
(1.11451 3.13181e-09 -3.49819e-06)
(1.11452 3.40204e-08 -5.14706e-06)
(1.11452 6.6552e-08 -6.72881e-06)
(1.11453 1.03417e-07 -5.91135e-06)
(1.11452 1.47893e-07 4.66719e-06)
(1.11447 2.0055e-07 3.44434e-05)
(1.11443 2.49731e-07 8.04755e-05)
(1.11451 -1.21846e-09 -3.49819e-06)
(1.11452 -3.21683e-08 -5.14707e-06)
(1.11452 -6.47411e-08 -6.72881e-06)
(1.11453 -1.01626e-07 -5.91136e-06)
(1.11452 -1.46089e-07 4.66718e-06)
(1.11447 -1.98699e-07 3.44434e-05)
(1.11443 -2.47988e-07 8.04755e-05)
(1.11451 -6.45194e-09 -3.50083e-06)
(1.11452 -9.81194e-08 -5.15056e-06)
(1.11452 -1.94242e-07 -6.73283e-06)
(1.11453 -3.03679e-07 -5.91581e-06)
(1.11452 -4.375e-07 4.66288e-06)
(1.11447 -5.98915e-07 3.44384e-05)
(1.11443 -7.51994e-07 8.04685e-05)
(1.11451 -1.46686e-08 -3.50633e-06)
(1.11452 -1.63747e-07 -5.15828e-06)
(1.11452 -3.18282e-07 -6.74165e-06)
(1.11453 -4.96097e-07 -5.9254e-06)
(1.11452 -7.20082e-07 4.65426e-06)
(1.11447 -1.00165e-06 3.44297e-05)
(1.11443 -1.27614e-06 8.04567e-05)
(0.508176 6.8496e-07 -5.85668e-06)
(0.508174 1.21539e-06 -7.17486e-06)
(0.508168 1.79247e-06 -5.93612e-06)
(0.508155 2.44816e-06 4.70481e-06)
(0.508124 3.19129e-06 3.96127e-05)
(0.508065 3.98451e-06 0.00011251)
(0.508034 4.61617e-06 0.000204064)
(0.508177 4.0524e-07 -5.86236e-06)
(0.508174 7.20753e-07 -7.18963e-06)
(0.508168 1.06298e-06 -5.96256e-06)
(0.508156 1.44419e-06 4.66123e-06)
(0.508124 1.86668e-06 3.95448e-05)
(0.508065 2.30714e-06 0.000112418)
(0.508034 2.65337e-06 0.000203959)
(0.508177 1.35142e-07 -5.86491e-06)
(0.508174 2.39933e-07 -7.19631e-06)
(0.508168 3.53192e-07 -5.97485e-06)
(0.508156 4.78263e-07 4.64147e-06)
(0.508124 6.15409e-07 3.95151e-05)
(0.508066 7.56796e-07 0.000112379)
(0.508034 8.6714e-07 0.000203916)
(0.508177 -1.31668e-07 -5.86493e-06)
(0.508174 -2.36526e-07 -7.19634e-06)
(0.508168 -3.49799e-07 -5.97488e-06)
(0.508156 -4.74833e-07 4.64143e-06)
(0.508124 -6.11867e-07 3.9515e-05)
(0.508066 -7.53086e-07 0.000112379)
(0.508034 -8.63591e-07 0.000203916)
(0.508177 -4.01768e-07 -5.86242e-06)
(0.508174 -7.17327e-07 -7.18969e-06)
(0.508168 -1.05955e-06 -5.96265e-06)
(0.508156 -1.4407e-06 4.66112e-06)
(0.508124 -1.86306e-06 3.95446e-05)
(0.508065 -2.30335e-06 0.000112418)
(0.508034 -2.64976e-06 0.000203959)
(0.508176 -6.81486e-07 -5.85678e-06)
(0.508174 -1.21192e-06 -7.17499e-06)
(0.508168 -1.78896e-06 -5.93628e-06)
(0.508155 -2.44453e-06 4.7046e-06)
(0.508124 -3.18748e-06 3.96124e-05)
(0.508065 -3.98053e-06 0.00011251)
(0.508034 -4.61244e-06 0.000204063)
(0.18358 1.13235e-06 1.56461e-06)
(0.183568 1.83178e-06 5.46025e-06)
(0.18355 2.60967e-06 1.46711e-05)
(0.183524 3.47146e-06 3.65327e-05)
(0.183486 4.40929e-06 8.2507e-05)
(0.183444 5.35176e-06 0.000159371)
(0.183436 6.04877e-06 0.000240678)
(0.18358 6.73186e-07 1.52211e-06)
(0.183568 1.09045e-06 5.38406e-06)
(0.183551 1.5453e-06 1.45535e-05)
(0.183525 2.04255e-06 3.63609e-05)
(0.183486 2.5741e-06 8.22681e-05)
(0.183445 3.09921e-06 0.000159062)
(0.183437 3.48439e-06 0.000240321)
(0.183581 2.24281e-07 1.50192e-06)
(0.183569 3.6278e-07 5.34811e-06)
(0.183551 5.12541e-07 1.44983e-05)
(0.183525 6.75078e-07 3.62813e-05)
(0.183487 8.47326e-07 8.21595e-05)
(0.183445 1.0161e-06 0.000158925)
(0.183437 1.13929e-06 0.000240164)
(0.183581 -2.20737e-07 1.50187e-06)
(0.183569 -3.59305e-07 5.34805e-06)
(0.183551 -5.09076e-07 1.44982e-05)
(0.183525 -6.71559e-07 3.62812e-05)
(0.183487 -8.43651e-07 8.21594e-05)
(0.183445 -1.01219e-06 0.000158925)
(0.183437 -1.13553e-06 0.000240164)
(0.18358 -6.69635e-07 1.52194e-06)
(0.183568 -1.08695e-06 5.38387e-06)
(0.183551 -1.54179e-06 1.45533e-05)
(0.183525 -2.03896e-06 3.63606e-05)
(0.183486 -2.57033e-06 8.22678e-05)
(0.183445 -3.09522e-06 0.000159062)
(0.183437 -3.48059e-06 0.000240321)
(0.18358 -1.12878e-06 1.56431e-06)
(0.183568 -1.82824e-06 5.45991e-06)
(0.18355 -2.60606e-06 1.46707e-05)
(0.183524 -3.46771e-06 3.65321e-05)
(0.183486 -4.40533e-06 8.25064e-05)
(0.183444 -5.34759e-06 0.000159371)
(0.183436 -6.04486e-06 0.000240677)
(1.11439 5.33113e-06 -4.93209e-05)
(1.11444 4.97668e-06 -3.73807e-05)
(1.11449 4.40484e-06 -1.68936e-05)
(1.11451 3.78661e-06 -2.35984e-06)
(1.11451 3.1848e-06 3.25667e-06)
(1.11451 2.61175e-06 4.05212e-06)
(1.1145 2.10944e-06 3.22234e-06)
(1.11439 7.26479e-06 -4.94456e-05)
(1.11444 6.75421e-06 -3.74994e-05)
(1.11449 5.92108e-06 -1.69802e-05)
(1.11451 5.03483e-06 -2.41136e-06)
(1.11451 4.19104e-06 3.22833e-06)
(1.11451 3.39867e-06 4.04919e-06)
(1.1145 2.71065e-06 3.22213e-06)
(1.11439 9.70214e-06 -4.99139e-05)
(1.11444 8.97467e-06 -3.79033e-05)
(1.11448 7.74001e-06 -1.72479e-05)
(1.1145 6.45861e-06 -2.55489e-06)
(1.11451 5.28268e-06 3.15773e-06)
(1.11451 4.20193e-06 4.0331e-06)
(1.1145 3.29633e-06 3.21997e-06)
(1.11438 1.31391e-05 -5.13668e-05)
(1.11443 1.19735e-05 -3.91087e-05)
(1.11448 1.00202e-05 -1.80039e-05)
(1.1145 8.12704e-06 -2.9352e-06)
(1.11451 6.4878e-06 2.98523e-06)
(1.1145 5.03458e-06 3.99181e-06)
(1.1145 3.85027e-06 3.21081e-06)
(1.11438 2.08154e-05 -5.53618e-05)
(1.11443 1.78737e-05 -4.22884e-05)
(1.11448 1.36821e-05 -1.98702e-05)
(1.1145 1.03418e-05 -3.80726e-06)
(1.1145 7.90467e-06 2.61076e-06)
(1.1145 5.92699e-06 3.8596e-06)
(1.1145 4.36014e-06 3.17647e-06)
(1.11437 4.12276e-05 -6.53024e-05)
(1.11442 3.27716e-05 -4.98023e-05)
(1.11447 2.15192e-05 -2.38788e-05)
(1.1145 1.39139e-05 -5.46153e-06)
(1.1145 9.61185e-06 1.98348e-06)
(1.1145 6.76982e-06 3.63672e-06)
(1.1145 4.71518e-06 3.13319e-06)
(1.11435 5.48735e-05 -8.37564e-05)
(1.1144 4.43007e-05 -6.30769e-05)
(1.11446 2.87288e-05 -3.02465e-05)
(1.11449 1.72129e-05 -7.73227e-06)
(1.1145 1.06903e-05 1.26479e-06)