/*--------------------------------*- C++ -*----------------------------------*\
  =========                 |
  \\      /  F ield         | OpenFOAM: The Open Source CFD Toolbox
   \\    /   O peration     | Website:  https://openfoam.org
    \\  /    A nd           | Version:  7
     \\/     M anipulation  |
\*---------------------------------------------------------------------------*/
FoamFile
{
    version     2.0;
    format      ascii;
    class       volVectorField;
    location    "1";
    object      U;
}
// * * * * * * * * * * * * * * * * * * * * * * * * * * * * * * * * * * * * * //

dimensions      [0 1 -1 0 0 0 0];

internalField   nonuniform List<vector> 
7784
(
(0.722585 -0.000131561 -0.000918689)
(0.721963 -0.000111457 -0.00076117)
(0.721957 -4.6757e-05 -0.000282779)
(0.722444 -1.85718e-05 -0.00012065)
(0.722613 -9.32794e-06 -6.30701e-05)
(0.722692 -5.13189e-06 -3.49915e-05)
(0.722744 -2.90858e-06 -2.04897e-05)
(0.722607 -0.000160007 -0.000855753)
(0.722034 -0.000134579 -0.000708844)
(0.722032 -6.25159e-05 -0.000267648)
(0.722473 -2.89448e-05 -0.000117358)
(0.722623 -1.60457e-05 -6.19536e-05)
(0.722697 -9.3896e-06 -3.45104e-05)
(0.722746 -5.58297e-06 -2.0275e-05)
(0.722619 -8.12925e-05 -0.000833456)
(0.722062 -6.814e-05 -0.00069105)
(0.722061 -4.22796e-05 -0.000260211)
(0.722489 -2.55385e-05 -0.00011457)
(0.722632 -1.60364e-05 -6.07411e-05)
(0.722702 -1.01715e-05 -3.39477e-05)
(0.722749 -6.45046e-06 -2.00076e-05)
(0.722625 -4.80182e-05 -0.000825418)
(0.722074 -4.14025e-05 -0.000684468)
(0.722075 -2.99924e-05 -0.000256584)
(0.722499 -2.06295e-05 -0.000112777)
(0.722639 -1.40614e-05 -5.98332e-05)
(0.722706 -9.50823e-06 -3.34763e-05)
(0.722752 -6.34897e-06 -1.97585e-05)
(0.722628 -3.14235e-05 -0.000821906)
(0.722081 -2.77351e-05 -0.000681525)
(0.722082 -2.17145e-05 -0.000254708)
(0.722505 -1.61027e-05 -0.000111699)
(0.722643 -1.16487e-05 -5.92205e-05)
(0.72271 -8.26758e-06 -3.31256e-05)
(0.722755 -5.74037e-06 -1.95567e-05)
(0.72263 -2.10556e-05 -0.000820271)
(0.722084 -1.89413e-05 -0.000680123)
(0.722086 -1.55874e-05 -0.000253713)
(0.722509 -1.21785e-05 -0.000111057)
(0.722647 -9.20886e-06 -5.88171e-05)
(0.722712 -6.7799e-06 -3.28751e-05)
(0.722757 -4.8503e-06 -1.9403e-05)
(0.722631 -1.40983e-05 -0.000819467)
(0.722086 -1.28747e-05 -0.000679413)
(0.722089 -1.09402e-05 -0.000253168)
(0.722512 -8.85334e-06 -0.000110671)
(0.722649 -6.90892e-06 -5.85555e-05)
(0.722714 -5.22583e-06 -3.27019e-05)
(0.722758 -3.82352e-06 -1.92906e-05)
(0.139039 -8.63507e-05 -0.00155947)
(0.138552 -7.31985e-05 -0.00126852)
(0.138501 -3.86567e-05 -0.000547281)
(0.13875 -1.85988e-05 -0.000283961)
(0.138884 -9.95998e-06 -0.000169493)
(0.138971 -5.6218e-06 -0.000104089)
(0.139033 -3.24827e-06 -6.5317e-05)
(0.139054 -0.000114029 -0.00145621)
(0.138592 -9.62765e-05 -0.00118468)
(0.138544 -5.50978e-05 -0.000520072)
(0.138772 -2.97226e-05 -0.000276645)
(0.138893 -1.73019e-05 -0.00016674)
(0.138975 -1.03667e-05 -0.000102929)
(0.139036 -6.2763e-06 -6.48359e-05)
(0.139064 -7.41554e-05 -0.00141535)
(0.138613 -6.28436e-05 -0.00115255)
(0.138567 -4.28398e-05 -0.000505365)
(0.138787 -2.76635e-05 -0.000270382)
(0.138902 -1.7924e-05 -0.000163774)
(0.138981 -1.15894e-05 -0.000101486)
(0.139039 -7.44843e-06 -6.41298e-05)
(0.13907 -5.0176e-05 -0.00139845)
(0.138624 -4.35121e-05 -0.00113882)
(0.138579 -3.27613e-05 -0.000497341)
(0.138797 -2.32822e-05 -0.000266081)
(0.138909 -1.61883e-05 -0.000161449)
(0.138986 -1.10842e-05 -0.000100221)
(0.139043 -7.45928e-06 -6.34385e-05)
(0.139073 -3.50255e-05 -0.00139016)
(0.138631 -3.10137e-05 -0.0011319)
(0.138587 -2.47436e-05 -0.000492763)
(0.138804 -1.86845e-05 -0.000263301)
(0.138915 -1.36809e-05 -0.000159791)
(0.13899 -9.78401e-06 -9.92373e-05)
(0.139046 -6.82307e-06 -6.28587e-05)
(0.139075 -2.43969e-05 -0.00138592)
(0.138635 -2.198e-05 -0.00112827)
(0.138592 -1.82484e-05 -0.000490135)
(0.138808 -1.43952e-05 -0.000261543)
(0.138918 -1.09608e-05 -0.000158652)
(0.138993 -8.1059e-06 -9.85126e-05)
(0.139048 -5.81238e-06 -6.24053e-05)
(0.139076 -1.67164e-05 -0.00138366)
(0.138637 -1.52669e-05 -0.00112629)
(0.138595 -1.30223e-05 -0.000488601)
(0.138811 -1.05903e-05 -0.000260438)
(0.138921 -8.29728e-06 -0.000157888)
(0.138995 -6.2918e-06 -9.7999e-05)
(0.13905 -4.60764e-06 -6.20684e-05)
(0.0198076 -3.75309e-05 -0.00111398)
(0.0194715 -3.42046e-05 -0.000913286)
(0.0193741 -2.27978e-05 -0.000552149)
(0.019451 -1.32916e-05 -0.000359164)
(0.0195187 -7.90968e-06 -0.000241402)
(0.0195733 -4.79886e-06 -0.000162079)
(0.0196164 -2.93186e-06 -0.000107977)
(0.0198109 -5.73833e-05 -0.00105783)
(0.019483 -5.12736e-05 -0.000868701)
(0.0193902 -3.55067e-05 -0.000532424)
(0.0194622 -2.21948e-05 -0.000351649)
(0.0195249 -1.39925e-05 -0.000238183)
(0.0195768 -8.87417e-06 -0.000160673)
(0.0196184 -5.61394e-06 -0.000107384)
(0.0198156 -4.87178e-05 -0.00102833)
(0.0194933 -4.25866e-05 -0.00084529)
(0.0194025 -3.17161e-05 -0.000519298)
(0.0194717 -2.20138e-05 -0.000344882)
(0.0195314 -1.49829e-05 -0.000234622)
(0.0195811 -1.00653e-05 -0.00015881)
(0.0196213 -6.66218e-06 -0.000106415)
(0.019819 -3.77895e-05 -0.00101254)
(0.0195004 -3.33414e-05 -0.000832291)
(0.0194108 -2.6266e-05 -0.00051083)
(0.0194789 -1.94705e-05 -0.0003398)
(0.0195368 -1.39942e-05 -0.000231636)
(0.0195851 -9.83622e-06 -0.00015708)
(0.0196241 -6.75566e-06 -0.000105423)
(0.0198214 -2.84565e-05 -0.00100344)
(0.019505 -2.54781e-05 -0.000824608)
(0.0194164 -2.089e-05 -0.000505382)
(0.019484 -1.62109e-05 -0.000336229)
(0.0195411 -1.21419e-05 -0.00022937)
(0.0195884 -8.8443e-06 -0.000155672)
(0.0196267 -6.25797e-06 -0.000104563)
(0.0198229 -2.08683e-05 -0.000998185)
(0.0195081 -1.8936e-05 -0.000820053)
(0.0194201 -1.59846e-05 -0.000501942)
(0.0194876 -1.28315e-05 -0.000333809)
(0.0195442 -9.9223e-06 -0.000227734)
(0.019591 -7.43375e-06 -0.000154594)
(0.0196287 -5.38649e-06 -0.00010387)
(0.0198239 -1.47969e-05 -0.00099511)
(0.01951 -1.35735e-05 -0.000817331)
(0.0194226 -1.16982e-05 -0.000499784)
(0.0194901 -9.6228e-06 -0.000332207)
(0.0195465 -7.62025e-06 -0.000226594)
(0.019593 -5.83259e-06 -0.000153809)
(0.0196304 -4.3046e-06 -0.000103345)
(0.722776 -1.68537e-06 -1.22788e-05)
(0.722795 -9.4978e-07 -6.93522e-06)
(0.722805 -4.46799e-07 -2.9038e-06)
(0.722807 -3.88698e-08 6.5688e-07)
(0.722801 3.74987e-07 4.37686e-06)
(0.722787 8.99444e-07 8.99151e-06)
(0.722777 -3.34212e-06 -1.21748e-05)
(0.722796 -1.92099e-06 -6.88453e-06)
(0.722806 -9.15138e-07 -2.88588e-06)
(0.722808 -8.37963e-08 6.49089e-07)
(0.722802 7.52928e-07 4.34347e-06)
(0.722788 1.78318e-06 8.92307e-06)
(0.722779 -4.0371e-06 -1.20432e-05)
(0.722798 -2.38732e-06 -6.82005e-06)
(0.722807 -1.15828e-06 -2.85914e-06)
(0.722809 -1.17968e-07 6.48214e-07)
(0.722803 9.19988e-07 4.31393e-06)
(0.722789 2.14715e-06 8.85133e-06)
(0.722781 -4.12736e-06 -1.19102e-05)
(0.722799 -2.50761e-06 -6.75096e-06)
(0.722808 -1.24422e-06 -2.82971e-06)
(0.72281 -1.50733e-07 6.48315e-07)
(0.722804 9.32563e-07 4.28358e-06)
(0.722791 2.16385e-06 8.77781e-06)
(0.722783 -3.84618e-06 -1.17952e-05)
(0.722801 -2.39072e-06 -6.68849e-06)
(0.722809 -1.21134e-06 -2.80157e-06)
(0.722811 -1.7044e-07 6.49187e-07)
(0.722805 8.53976e-07 4.25684e-06)
(0.722792 1.98184e-06 8.71522e-06)
(0.722785 -3.32804e-06 -1.17025e-05)
(0.722802 -2.10751e-06 -6.63586e-06)
(0.72281 -1.087e-06 -2.77739e-06)
(0.722812 -1.72862e-07 6.50426e-07)
(0.722806 7.22842e-07 4.23504e-06)
(0.722793 1.68535e-06 8.66483e-06)
(0.722786 -2.67124e-06 -1.16319e-05)
(0.722803 -1.71631e-06 -6.59444e-06)
(0.722811 -8.98599e-07 -2.75752e-06)
(0.722813 -1.57133e-07 6.52163e-07)
(0.722807 5.67339e-07 4.21857e-06)
(0.722794 1.33135e-06 8.62707e-06)
(0.139075 -1.90124e-06 -4.05529e-05)
(0.139102 -1.0741e-06 -2.29513e-05)
(0.139115 -5.01528e-07 -8.86606e-06)
(0.139116 -3.2056e-08 3.99526e-06)
(0.139106 4.50693e-07 1.75156e-05)
(0.139084 1.06849e-06 3.38557e-05)
(0.139077 -3.79499e-06 -4.03446e-05)
(0.139103 -2.18687e-06 -2.2858e-05)
(0.139115 -1.03023e-06 -8.82821e-06)
(0.139117 -6.3207e-08 3.99809e-06)
(0.139107 9.20246e-07 1.74803e-05)
(0.139085 2.13724e-06 3.37539e-05)
(0.139079 -4.69519e-06 -3.99924e-05)
(0.139104 -2.77709e-06 -2.26847e-05)
(0.139117 -1.32688e-06 -8.75609e-06)
(0.139118 -8.33435e-08 3.99714e-06)
(0.139108 1.16753e-06 1.74019e-05)
(0.139086 2.64831e-06 3.35559e-05)
(0.139081 -4.86703e-06 -3.96155e-05)
(0.139106 -2.95083e-06 -2.24871e-05)
(0.139118 -1.43844e-06 -8.6719e-06)
(0.139119 -1.15331e-07 3.99451e-06)
(0.13911 1.20433e-06 1.73084e-05)
(0.139088 2.70703e-06 3.33349e-05)
(0.139084 -4.57761e-06 -3.92793e-05)
(0.139107 -2.83474e-06 -2.23027e-05)
(0.139119 -1.40912e-06 -8.59023e-06)
(0.139121 -1.41065e-07 3.99349e-06)
(0.139111 1.11477e-06 1.72226e-05)
(0.13909 2.50136e-06 3.31391e-05)
(0.139085 -3.98685e-06 -3.9003e-05)
(0.139109 -2.51236e-06 -2.21452e-05)
(0.139121 -1.27112e-06 -8.51841e-06)
(0.139122 -1.51557e-07 3.99448e-06)
(0.139112 9.51355e-07 1.71519e-05)
(0.139091 2.13944e-06 3.29801e-05)
(0.139087 -3.21511e-06 -3.87898e-05)
(0.13911 -2.05449e-06 -2.202e-05)
(0.139122 -1.05483e-06 -8.45974e-06)
(0.139123 -1.434e-07 3.99659e-06)
(0.139113 7.50938e-07 1.70974e-05)
(0.139092 1.6965e-06 3.28593e-05)
(0.0196475 -1.78012e-06 -6.93551e-05)
(0.0196677 -1.02531e-06 -3.97374e-05)
(0.0196778 -4.79357e-07 -1.48891e-05)
(0.0196785 -2.00046e-08 8.28063e-06)
(0.0196697 4.49227e-07 3.24896e-05)
(0.0196508 1.03228e-06 6.07279e-05)
(0.0196487 -3.4959e-06 -6.9105e-05)
(0.0196684 -2.04904e-06 -3.96289e-05)
(0.0196783 -9.6989e-07 -1.48398e-05)
(0.0196789 -4.90518e-08 8.3015e-06)
(0.0196702 8.83505e-07 3.24745e-05)
(0.0196516 2.0076e-06 6.06333e-05)
(0.0196507 -4.28818e-06 -6.86016e-05)
(0.0196698 -2.57081e-06 -3.9374e-05)
(0.0196794 -1.23587e-06 -1.47309e-05)
(0.0196799 -7.46964e-08 8.30314e-06)
(0.0196713 1.09039e-06 3.23628e-05)
(0.019653 2.44181e-06 6.03493e-05)
(0.0196528 -4.47448e-06 -6.8041e-05)
(0.0196714 -2.73983e-06 -3.90733e-05)
(0.0196808 -1.34211e-06 -1.46006e-05)
(0.0196812 -1.06136e-07 8.29871e-06)
(0.0196726 1.12476e-06 3.22181e-05)
(0.0196546 2.50589e-06 6.00155e-05)
(0.0196547 -4.24409e-06 -6.75281e-05)
(0.019673 -2.64736e-06 -3.87864e-05)
(0.0196821 -1.32073e-06 -1.44728e-05)
(0.0196824 -1.30545e-07 8.29642e-06)
(0.0196739 1.0471e-06 3.20831e-05)
(0.0196561 2.33308e-06 5.97121e-05)
(0.0196564 -3.72433e-06 -6.70979e-05)
(0.0196744 -2.35972e-06 -3.85381e-05)
(0.0196833 -1.19667e-06 -1.4359e-05)
(0.0196836 -1.40583e-07 8.297e-06)
(0.0196751 8.99104e-07 3.19693e-05)
(0.0196574 2.01e-06 5.94606e-05)
(0.0196577 -3.02169e-06 -6.67604e-05)
(0.0196755 -1.93861e-06 -3.83379e-05)
(0.0196843 -9.96786e-07 -1.4265e-05)
(0.0196845 -1.33584e-07 8.29959e-06)
(0.0196761 7.1342e-07 3.18806e-05)
(0.0196585 1.60356e-06 5.92664e-05)
(0.722761 1.70209e-06 1.576e-05)
(0.722717 3.11342e-06 2.73924e-05)
(0.722649 5.75574e-06 5.01281e-05)
(0.722515 1.14089e-05 9.80779e-05)
(0.722103 2.96758e-05 0.000222585)
(0.721914 7.62918e-05 0.000613254)
(0.722434 8.79651e-05 0.000902283)
(0.722762 3.28357e-06 1.5631e-05)
(0.722721 5.74463e-06 2.71265e-05)
(0.722655 1.00137e-05 4.95254e-05)
(0.722534 1.81036e-05 9.63332e-05)
(0.722154 3.9912e-05 0.000213806)
(0.721959 9.13629e-05 0.000579671)
(0.722443 0.000106629 0.000863305)
(0.722764 3.81015e-06 1.54784e-05)
(0.722724 6.28017e-06 2.67988e-05)
(0.722661 1.01318e-05 4.87987e-05)
(0.722544 1.63402e-05 9.46291e-05)
(0.722174 2.74194e-05 0.0002092)
(0.721977 4.56303e-05 0.000568188)
(0.722449 5.41547e-05 0.000849398)
(0.722766 3.72777e-06 1.53316e-05)
(0.722727 5.86424e-06 2.65138e-05)
(0.722665 8.89283e-06 4.82399e-05)
(0.72255 1.3243e-05 9.35136e-05)
(0.722183 1.95129e-05 0.000206927)
(0.721985 2.7531e-05 0.000563914)
(0.722453 3.21303e-05 0.000844207)
(0.722768 3.34269e-06 1.5213e-05)
(0.722729 5.08264e-06 2.63004e-05)
(0.722668 7.36528e-06 4.78609e-05)
(0.722555 1.03579e-05 9.28409e-05)
(0.722188 1.41653e-05 0.000205743)
(0.72199 1.83925e-05 0.000562002)
(0.722455 2.10424e-05 0.000841899)
(0.722769 2.79991e-06 1.51221e-05)
(0.722731 4.15151e-06 2.61475e-05)
(0.722671 5.8169e-06 4.76097e-05)
(0.722557 7.84118e-06 9.24358e-05)
(0.722191 1.01812e-05 0.000205109)
(0.721992 1.25388e-05 0.000561089)
(0.722456 1.40864e-05 0.000840818)
(0.72277 2.18875e-06 1.50562e-05)
(0.722732 3.18667e-06 2.60414e-05)
(0.722672 4.35685e-06 4.74458e-05)
(0.722559 5.69849e-06 9.21906e-05)
(0.722193 7.14543e-06 0.000204758)
(0.721993 8.51077e-06 0.000560625)
(0.722456 9.41921e-06 0.000840283)
(0.139046 2.018e-06 5.63451e-05)
(0.138989 3.66792e-06 9.11851e-05)
(0.138908 6.70803e-06 0.000150743)
(0.138787 1.28017e-05 0.000259439)
(0.138559 2.75531e-05 0.000495738)
(0.138545 5.44901e-05 0.00111613)
(0.139026 6.19184e-05 0.00158189)
(0.139048 3.90209e-06 5.60899e-05)
(0.138992 6.74914e-06 9.05294e-05)
(0.138915 1.15823e-05 0.000149066)
(0.138803 2.0269e-05 0.000254727)
(0.138591 3.86429e-05 0.000477441)
(0.13857 7.01865e-05 0.00105796)
(0.139031 8.07141e-05 0.00151285)
(0.13905 4.64028e-06 5.5662e-05)
(0.138996 7.54806e-06 8.96184e-05)
(0.138921 1.19568e-05 0.000147118)
(0.138813 1.87322e-05 0.000250481)
(0.138607 2.94357e-05 0.00046736)
(0.138583 4.39468e-05 0.00103582)
(0.139036 5.11338e-05 0.00148564)
(0.139053 4.60757e-06 5.5228e-05)
(0.138999 7.17254e-06 8.87984e-05)
(0.138926 1.07297e-05 0.000145578)
(0.13882 1.56512e-05 0.000247592)
(0.138615 2.22605e-05 0.000461937)
(0.138591 2.98463e-05 0.00102644)
(0.139039 3.42544e-05 0.00147427)
(0.139055 4.16963e-06 5.48651e-05)
(0.139002 6.28425e-06 8.81624e-05)
(0.138929 9.01449e-06 0.000144486)
(0.138825 1.24937e-05 0.000245742)
(0.138621 1.67086e-05 0.000458867)
(0.138595 2.10883e-05 0.00102175)
(0.139041 2.38088e-05 0.00146866)
(0.139056 3.5133e-06 5.45827e-05)
(0.139004 5.16893e-06 8.76954e-05)
(0.138932 7.18362e-06 0.000143739)
(0.138828 9.58196e-06 0.000244574)
(0.138624 1.22653e-05 0.000457109)
(0.138598 1.48628e-05 0.00101931)
(0.139042 1.653e-05 0.00146579)
(0.139058 2.75691e-06 5.43744e-05)
(0.139006 3.98496e-06 8.73656e-05)
(0.138934 5.41119e-06 0.000143238)
(0.13883 7.02138e-06 0.000243842)
(0.138626 8.72004e-06 0.000456085)
(0.1386 1.0284e-05 0.00101797)
(0.139043 1.12967e-05 0.00146427)
(0.0196208 1.87582e-06 9.70233e-05)
(0.0195785 3.21871e-06 0.000147548)
(0.0195235 5.455e-06 0.000222049)
(0.0194546 9.34626e-06 0.000334863)
(0.0193705 1.64827e-05 0.000519042)
(0.0194289 2.5321e-05 0.000866492)
(0.0197686 2.56549e-05 0.00115537)
(0.0196222 3.55901e-06 9.67224e-05)
(0.0195809 5.89044e-06 0.00014672)
(0.0195278 9.53016e-06 0.000219972)
(0.0194627 1.53743e-05 0.000329746)
(0.0193825 2.51514e-05 0.000504898)
(0.0194355 3.7056e-05 0.000832868)
(0.0197683 3.91615e-05 0.00111392)
(0.0196242 4.19537e-06 9.61247e-05)
(0.0195839 6.6314e-06 0.000145514)
(0.0195323 1.01081e-05 0.000217586)
(0.0194694 1.50622e-05 0.0003251)
(0.0193912 2.19596e-05 0.000495686)
(0.019442 2.97197e-05 0.000816046)
(0.0197706 3.32562e-05 0.00109306)
(0.0196263 4.20702e-06 9.54907e-05)
(0.0195867 6.42185e-06 0.000144371)
(0.0195362 9.35996e-06 0.000215573)
(0.0194744 1.32033e-05 0.000321627)
(0.019397 1.79724e-05 0.000489828)
(0.0194467 2.2915e-05 0.000806932)
(0.0197726 2.57488e-05 0.00108207)
(0.0196281 3.85051e-06 9.49423e-05)
(0.019589 5.72354e-06 0.000143444)
(0.0195391 8.06148e-06 0.000214055)
(0.019478 1.09169e-05 0.000319204)
(0.0194009 1.41877e-05 0.000486094)
(0.0194498 1.73722e-05 0.000801613)
(0.0197741 1.93444e-05 0.00107579)
(0.0196297 3.27588e-06 9.45042e-05)
(0.0195909 4.7708e-06 0.000142738)
(0.0195413 6.54451e-06 0.000212963)
(0.0194805 8.59136e-06 0.000317569)
(0.0194034 1.07946e-05 0.00048375)
(0.0194518 1.28414e-05 0.000798488)
(0.0197751 1.41504e-05 0.00107219)
(0.0196309 2.5904e-06 9.41744e-05)
(0.0195923 3.71558e-06 0.000142226)
(0.0195429 4.99755e-06 0.000212205)
(0.0194822 6.41211e-06 0.000316491)
(0.0194051 7.86534e-06 0.000482286)
(0.0194532 9.16895e-06 0.000796632)
(0.0197757 1.00103e-05 0.00107009)
(0.722631 -9.06055e-06 -0.00081905)
(0.722087 -8.36166e-06 -0.000679037)
(0.72209 -7.24894e-06 -0.000252861)
(0.722513 -6.00086e-06 -0.000110441)
(0.72265 -4.78456e-06 -5.83899e-05)
(0.722715 -3.68794e-06 -3.25868e-05)
(0.722759 -2.74161e-06 -1.9213e-05)
(0.722632 -5.08164e-06 -0.000818836)
(0.722088 -4.72068e-06 -0.000678841)
(0.722091 -4.14067e-06 -0.000252695)
(0.722514 -3.47501e-06 -0.00011031)
(0.722651 -2.8077e-06 -5.82925e-05)
(0.722716 -2.19013e-06 -3.25168e-05)
(0.72276 -1.64485e-06 -1.91644e-05)
(0.722632 -1.63924e-06 -0.000818745)
(0.722088 -1.52771e-06 -0.000678755)
(0.722092 -1.34742e-06 -0.000252621)
(0.722514 -1.13806e-06 -0.000110251)
(0.722652 -9.25368e-07 -5.82474e-05)
(0.722717 -7.26e-07 -3.24838e-05)
(0.72276 -5.47938e-07 -1.91411e-05)
(0.722632 1.63885e-06 -0.000818745)
(0.722088 1.52632e-06 -0.000678755)
(0.722092 1.34628e-06 -0.000252621)
(0.722514 1.13712e-06 -0.000110251)
(0.722652 9.24634e-07 -5.82474e-05)
(0.722717 7.2545e-07 -3.24838e-05)
(0.72276 5.47636e-07 -1.91411e-05)
(0.722632 5.08122e-06 -0.000818836)
(0.722088 4.71893e-06 -0.000678841)
(0.722091 4.13942e-06 -0.000252695)
(0.722514 3.47388e-06 -0.00011031)
(0.722651 2.8068e-06 -5.82925e-05)
(0.722716 2.18943e-06 -3.25169e-05)
(0.72276 1.64444e-06 -1.91644e-05)
(0.722631 9.06002e-06 -0.00081905)
(0.722087 8.35979e-06 -0.000679037)
(0.72209 7.24732e-06 -0.000252861)
(0.722513 5.99962e-06 -0.000110441)
(0.72265 4.78353e-06 -5.83899e-05)
(0.722715 3.68709e-06 -3.25869e-05)
(0.722759 2.74106e-06 -1.92129e-05)
(0.139077 -1.0884e-05 -0.00138242)
(0.138638 -1.0037e-05 -0.00112518)
(0.138597 -8.71378e-06 -0.000487702)
(0.138813 -7.23237e-06 -0.000259757)
(0.138923 -5.7794e-06 -0.000157394)
(0.138996 -4.46084e-06 -9.76525e-05)
(0.139051 -3.31666e-06 -6.18329e-05)
(0.139077 -6.14774e-06 -0.00138176)
(0.138639 -5.70392e-06 -0.00112458)
(0.138598 -5.00532e-06 -0.000487201)
(0.138814 -4.20668e-06 -0.000259364)
(0.138924 -3.4035e-06 -0.000157099)
(0.138997 -2.6569e-06 -9.74395e-05)
(0.139052 -1.99486e-06 -6.16845e-05)
(0.139078 -1.98959e-06 -0.00138147)
(0.13864 -1.85174e-06 -0.00112432)
(0.138598 -1.63318e-06 -0.000486975)
(0.138815 -1.38086e-06 -0.000259183)
(0.138924 -1.12403e-06 -0.000156962)
(0.138998 -8.82437e-07 -9.73383e-05)
(0.139052 -6.65857e-07 -6.16129e-05)
(0.139078 1.98762e-06 -0.00138147)
(0.13864 1.84907e-06 -0.00112432)
(0.138598 1.63072e-06 -0.000486975)
(0.138815 1.37845e-06 -0.000259183)
(0.138924 1.12167e-06 -0.000156961)
(0.138998 8.80118e-07 -9.73383e-05)
(0.139052 6.63663e-07 -6.16129e-05)
(0.139077 6.1454e-06 -0.00138176)
(0.138639 5.70102e-06 -0.00112458)
(0.138598 5.00256e-06 -0.000487201)
(0.138814 4.20401e-06 -0.000259364)
(0.138924 3.40095e-06 -0.000157099)
(0.138997 2.65439e-06 -9.74395e-05)
(0.139052 1.9924e-06 -6.16844e-05)
(0.139077 1.08815e-05 -0.00138242)
(0.138638 1.00335e-05 -0.00112518)
(0.138597 8.71074e-06 -0.000487702)
(0.138813 7.22951e-06 -0.000259757)
(0.138923 5.77671e-06 -0.000157394)
(0.138996 4.45827e-06 -9.76524e-05)
(0.139051 3.31414e-06 -6.18328e-05)
(0.0198245 -9.84581e-06 -0.000993314)
(0.0195112 -9.10403e-06 -0.000815711)
(0.0194241 -7.95811e-06 -0.000498455)
(0.0194917 -6.65737e-06 -0.00033118)
(0.019548 -5.36109e-06 -0.000225835)
(0.0195943 -4.16699e-06 -0.000153268)
(0.0196316 -3.11665e-06 -0.000102972)
(0.0198248 -5.63275e-06 -0.000992314)
(0.0195119 -5.23536e-06 -0.000814799)
(0.019425 -4.61701e-06 -0.00049769)
(0.0194927 -3.90325e-06 -0.000330572)
(0.019549 -3.17701e-06 -0.000225374)
(0.0195952 -2.494e-06 -0.00015293)
(0.0196323 -1.88165e-06 -0.000102734)
(0.019825 -1.83376e-06 -0.000991867)
(0.0195122 -1.70899e-06 -0.000814387)
(0.0194254 -1.51351e-06 -0.000497339)
(0.0194932 -1.28616e-06 -0.00033029)
(0.0195494 -1.05241e-06 -0.000225156)
(0.0195956 -8.30311e-07 -0.000152768)
(0.0196327 -6.29275e-07 -0.000102619)
(0.019825 1.83206e-06 -0.000991867)
(0.0195122 1.70657e-06 -0.000814386)
(0.0194254 1.51124e-06 -0.000497339)
(0.0194932 1.28387e-06 -0.00033029)
(0.0195494 1.05015e-06 -0.000225156)
(0.0195956 8.28044e-07 -0.000152768)
(0.0196327 6.27059e-07 -0.000102619)
(0.0198248 5.63083e-06 -0.000992314)
(0.0195119 5.23269e-06 -0.000814798)
(0.019425 4.61447e-06 -0.000497689)
(0.0194927 3.90081e-06 -0.000330572)
(0.019549 3.17458e-06 -0.000225374)
(0.0195952 2.49152e-06 -0.00015293)
(0.0196323 1.87932e-06 -0.000102734)
(0.0198245 9.84348e-06 -0.000993313)
(0.0195112 9.10092e-06 -0.000815711)
(0.0194241 7.95536e-06 -0.000498455)
(0.0194917 6.65475e-06 -0.00033118)
(0.019548 5.35859e-06 -0.000225835)
(0.0195943 4.16446e-06 -0.000153267)
(0.0196316 3.11426e-06 -0.000102972)
(0.722787 -1.94057e-06 -1.15816e-05)
(0.722804 -1.26035e-06 -6.56422e-06)
(0.722812 -6.67357e-07 -2.74293e-06)
(0.722813 -1.24965e-07 6.53443e-07)
(0.722808 4.03891e-07 4.20693e-06)
(0.722795 9.54369e-07 8.60053e-06)
(0.722788 -1.17413e-06 -1.15493e-05)
(0.722804 -7.67935e-07 -6.5444e-06)
(0.722812 -4.09692e-07 -2.73315e-06)
(0.722814 -8.01014e-08 6.5452e-07)
(0.722808 2.40856e-07 4.1995e-06)
(0.722795 5.72138e-07 8.5837e-06)
(0.722788 -3.92721e-07 -1.15337e-05)
(0.722804 -2.57714e-07 -6.53472e-06)
(0.722813 -1.3791e-07 -2.72828e-06)
(0.722814 -2.73895e-08 6.55203e-07)
(0.722808 8.01731e-08 4.19599e-06)
(0.722795 1.90748e-07 8.57562e-06)
(0.722788 3.92589e-07 -1.15337e-05)
(0.722804 2.57754e-07 -6.5347e-06)
(0.722813 1.38238e-07 -2.72825e-06)
(0.722814 2.79459e-08 6.55226e-07)
(0.722808 -7.94296e-08 4.19597e-06)
(0.722795 -1.89786e-07 8.57559e-06)
(0.722788 1.17389e-06 -1.15494e-05)
(0.722804 7.67912e-07 -6.5444e-06)
(0.722812 4.09899e-07 -2.73312e-06)
(0.722814 8.04925e-08 6.54596e-07)
(0.722808 -2.40228e-07 4.19949e-06)
(0.722795 -5.71249e-07 8.58373e-06)
(0.722787 1.94023e-06 -1.15816e-05)
(0.722804 1.26026e-06 -6.56408e-06)
(0.722812 6.67532e-07 -2.74285e-06)
(0.722813 1.25418e-07 6.53544e-07)
(0.722808 -4.03286e-07 4.20695e-06)
(0.722795 -9.53548e-07 8.60065e-06)
(0.139088 -2.34338e-06 -3.86362e-05)
(0.139111 -1.51302e-06 -2.19277e-05)
(0.139123 -7.85857e-07 -8.41559e-06)
(0.139124 -1.17587e-07 3.99903e-06)
(0.139114 5.36723e-07 1.70586e-05)
(0.139093 1.21925e-06 3.27735e-05)
(0.139089 -1.42105e-06 -3.85374e-05)
(0.139112 -9.23905e-07 -2.18674e-05)
(0.139123 -4.83757e-07 -8.38629e-06)
(0.139124 -7.70886e-08 4.00117e-06)
(0.139115 3.20337e-07 1.70339e-05)
(0.139094 7.31464e-07 3.2719e-05)
(0.139089 -4.76445e-07 -3.84892e-05)
(0.139112 -3.11061e-07 -2.18376e-05)
(0.139123 -1.6374e-07 -8.37159e-06)
(0.139124 -2.72909e-08 4.00246e-06)
(0.139115 1.05799e-07 1.70219e-05)
(0.139094 2.42943e-07 3.26926e-05)
(0.139089 4.74262e-07 -3.84892e-05)
(0.139112 3.08897e-07 -2.18376e-05)
(0.139123 1.61767e-07 -8.37156e-06)
(0.139124 2.54091e-08 4.00247e-06)
(0.139115 -1.07888e-07 1.70219e-05)
(0.139094 -2.45071e-07 3.26926e-05)
(0.139089 1.41876e-06 -3.85373e-05)
(0.139112 9.21716e-07 -2.18673e-05)
(0.139123 4.8163e-07 -8.38616e-06)
(0.139124 7.49266e-08 4.00128e-06)
(0.139115 -3.22567e-07 1.7034e-05)
(0.139094 -7.33596e-07 3.27191e-05)
(0.139088 2.34108e-06 -3.8636e-05)
(0.139111 1.51083e-06 -2.19275e-05)
(0.139123 7.83724e-07 -8.41541e-06)
(0.139124 1.15432e-07 3.99927e-06)
(0.139114 -5.38769e-07 1.70588e-05)
(0.139093 -1.22122e-06 3.27739e-05)
(0.0196587 -2.2123e-06 -6.65146e-05)
(0.0196764 -1.43281e-06 -3.81892e-05)
(0.0196851 -7.44741e-07 -1.41939e-05)
(0.0196853 -1.09655e-07 8.30286e-06)
(0.0196768 5.12049e-07 3.18166e-05)
(0.0196593 1.15755e-06 5.91268e-05)
(0.0196594 -1.34552e-06 -6.6355e-05)
(0.019677 -8.77083e-07 -3.80913e-05)
(0.0196856 -4.59389e-07 -1.41463e-05)
(0.0196858 -7.20017e-08 8.30591e-06)
(0.0196774 3.06601e-07 3.17756e-05)
(0.0196599 6.96625e-07 5.90374e-05)
(0.0196598 -4.51783e-07 -6.62768e-05)
(0.0196773 -2.95635e-07 -3.80428e-05)
(0.0196859 -1.5563e-07 -1.41225e-05)
(0.019686 -2.56213e-08 8.30761e-06)
(0.0196776 1.01279e-07 3.17556e-05)
(0.0196601 2.31626e-07 5.89938e-05)
(0.0196598 4.4962e-07 -6.62768e-05)
(0.0196773 2.9349e-07 -3.80428e-05)
(0.0196859 1.53739e-07 -1.41224e-05)
(0.019686 2.36549e-08 8.30764e-06)
(0.0196776 -1.03487e-07 3.17556e-05)
(0.0196601 -2.33842e-07 5.89938e-05)
(0.0196594 1.34334e-06 -6.6355e-05)
(0.019677 8.74904e-07 -3.80911e-05)
(0.0196856 4.57289e-07 -1.41461e-05)
(0.0196858 6.9859e-08 8.30602e-06)
(0.0196774 -3.08753e-07 3.17757e-05)
(0.0196599 -6.98742e-07 5.90375e-05)
(0.0196587 2.21005e-06 -6.65143e-05)
(0.0196764 1.43066e-06 -3.81889e-05)
(0.0196851 7.42616e-07 -1.41936e-05)
(0.0196853 1.0742e-07 8.30316e-06)
(0.0196768 -5.14217e-07 3.18169e-05)
(0.0196593 -1.15967e-06 5.91272e-05)
(0.722771 1.55825e-06 1.50107e-05)
(0.722733 2.24019e-06 2.59708e-05)
(0.722673 3.01148e-06 4.73419e-05)
(0.72256 3.85938e-06 9.20436e-05)
(0.722194 4.73171e-06 0.00020456)
(0.721994 5.52119e-06 0.000560379)
(0.722457 6.04556e-06 0.000840006)
(0.722772 9.30225e-07 1.49824e-05)
(0.722733 1.3267e-06 2.5928e-05)
(0.722674 1.76465e-06 4.72807e-05)
(0.722561 2.23322e-06 9.19603e-05)
(0.722194 2.7013e-06 0.000204453)
(0.721995 3.11449e-06 0.00056025)
(0.722457 3.38774e-06 0.000839864)
(0.722772 3.09395e-07 1.49689e-05)
(0.722734 4.39451e-07 2.59078e-05)
(0.722674 5.8144e-07 4.72524e-05)
(0.722561 7.31341e-07 9.19224e-05)
(0.722195 8.78948e-07 0.000204405)
(0.721995 1.00769e-06 0.000560195)
(0.722457 1.09325e-06 0.000839803)
(0.722772 -3.08174e-07 1.49689e-05)
(0.722734 -4.38082e-07 2.59078e-05)
(0.722674 -5.79966e-07 4.72523e-05)
(0.722561 -7.29826e-07 9.19224e-05)
(0.722195 -8.77499e-07 0.000204405)
(0.721995 -1.00633e-06 0.000560195)
(0.722457 -1.08969e-06 0.000839803)
(0.722772 -9.29045e-07 1.49825e-05)
(0.722733 -1.32537e-06 2.5928e-05)
(0.722674 -1.76325e-06 4.72807e-05)
(0.722561 -2.23179e-06 9.19603e-05)
(0.722194 -2.69988e-06 0.000204453)
(0.721995 -3.11315e-06 0.000560251)
(0.722457 -3.38428e-06 0.000839864)
(0.722771 -1.5572e-06 1.50108e-05)
(0.722733 -2.23903e-06 2.59709e-05)
(0.722673 -3.01026e-06 4.7342e-05)
(0.72256 -3.85811e-06 9.20438e-05)
(0.722194 -4.73034e-06 0.00020456)
(0.721994 -5.51996e-06 0.00056038)
(0.722457 -6.04234e-06 0.000840006)
(0.139059 1.96752e-06 5.42297e-05)
(0.139007 2.80914e-06 8.71439e-05)
(0.138935 3.75358e-06 0.000142916)
(0.138831 4.77938e-06 0.000243392)
(0.138627 5.8181e-06 0.000455486)
(0.138601 6.74284e-06 0.00101723)
(0.139044 7.34025e-06 0.00146343)
(0.139059 1.17561e-06 5.41392e-05)
(0.139008 1.66567e-06 8.70081e-05)
(0.138936 2.20342e-06 0.000142724)
(0.138832 2.77299e-06 0.000243132)
(0.138628 3.33487e-06 0.000455152)
(0.138601 3.82469e-06 0.00101683)
(0.139044 4.13999e-06 0.00146299)
(0.13906 3.90081e-07 5.40957e-05)
(0.139008 5.50881e-07 8.69438e-05)
(0.138936 7.25402e-07 0.000142634)
(0.138832 9.07974e-07 0.000243013)
(0.138628 1.08577e-06 0.000455002)
(0.138601 1.2392e-06 0.00101665)
(0.139044 1.33865e-06 0.00146279)
(0.13906 -3.92173e-07 5.40958e-05)
(0.139008 -5.53039e-07 8.69438e-05)
(0.138936 -7.27567e-07 0.000142634)
(0.138832 -9.10179e-07 0.000243013)
(0.138628 -1.08806e-06 0.000455002)
(0.138601 -1.2416e-06 0.00101665)
(0.139044 -1.33811e-06 0.00146279)
(0.139059 -1.17768e-06 5.41394e-05)
(0.139008 -1.66782e-06 8.70083e-05)
(0.138936 -2.20556e-06 0.000142724)
(0.138832 -2.77512e-06 0.000243132)
(0.138628 -3.337e-06 0.000455152)
(0.138601 -3.82695e-06 0.00101683)
(0.139044 -4.13947e-06 0.00146299)
(0.139059 -1.96946e-06 5.423e-05)
(0.139007 -2.81114e-06 8.71441e-05)
(0.138935 -3.75564e-06 0.000142916)
(0.138831 -4.78146e-06 0.000243392)
(0.138627 -5.82007e-06 0.000455486)
(0.138601 -6.745e-06 0.00101723)
(0.139044 -7.33982e-06 0.00146343)
(0.0196318 1.85885e-06 9.39419e-05)
(0.0195933 2.63804e-06 0.000141875)
(0.019544 3.49955e-06 0.000211702)
(0.0194834 4.41922e-06 0.000315803)
(0.0194062 5.33304e-06 0.000481388)
(0.019454 6.13247e-06 0.000795531)
(0.0197761 6.64789e-06 0.00106886)
(0.0196324 1.11475e-06 9.37947e-05)
(0.0195939 1.57147e-06 0.000141657)
(0.0195447 2.06653e-06 0.000211397)
(0.0194841 2.58372e-06 0.000315397)
(0.0194068 3.08659e-06 0.000480871)
(0.0194545 3.51941e-06 0.000794913)
(0.0197764 3.79793e-06 0.00106819)
(0.0196327 3.70457e-07 9.37236e-05)
(0.0195943 5.20811e-07 0.000141552)
(0.019545 6.82189e-07 0.000211254)
(0.0194844 8.48971e-07 0.000315208)
(0.0194071 1.00943e-06 0.000480635)
(0.0194547 1.14645e-06 0.000794634)
(0.0197765 1.23536e-06 0.00106788)
(0.0196327 -3.72699e-07 9.37236e-05)
(0.0195943 -5.23115e-07 0.000141552)
(0.019545 -6.84496e-07 0.000211254)
(0.0194844 -8.51306e-07 0.000315208)
(0.0194071 -1.01181e-06 0.000480635)
(0.0194547 -1.14887e-06 0.000794634)
(0.0197765 -1.23486e-06 0.00106788)
(0.0196324 -1.11693e-06 9.37948e-05)
(0.0195939 -1.57372e-06 0.000141657)
(0.0195447 -2.06872e-06 0.000211397)
(0.0194841 -2.5859e-06 0.000315396)
(0.0194068 -3.08881e-06 0.000480871)
(0.0194545 -3.52173e-06 0.000794913)
(0.0197764 -3.79744e-06 0.00106819)
(0.0196318 -1.86101e-06 9.3942e-05)
(0.0195933 -2.64024e-06 0.000141875)
(0.019544 -3.50169e-06 0.000211702)
(0.0194834 -4.42138e-06 0.000315803)
(0.0194062 -5.33512e-06 0.000481388)
(0.019454 -6.13474e-06 0.000795531)
(0.0197762 -6.64758e-06 0.00106886)
(0.722631 1.40978e-05 -0.000819466)
(0.722086 1.28725e-05 -0.000679413)
(0.722089 1.09384e-05 -0.000253167)
(0.722512 8.8518e-06 -0.000110671)
(0.722649 6.90786e-06 -5.85553e-05)
(0.722714 5.22496e-06 -3.27019e-05)
(0.722758 3.82288e-06 -1.92904e-05)
(0.72263 2.1055e-05 -0.000820271)
(0.722084 1.89389e-05 -0.000680122)
(0.722086 1.55852e-05 -0.000253713)
(0.722509 1.21768e-05 -0.000111057)
(0.722647 9.2074e-06 -5.88169e-05)
(0.722712 6.77878e-06 -3.28752e-05)
(0.722757 4.84973e-06 -1.94028e-05)
(0.722628 3.14226e-05 -0.000821906)
(0.722081 2.77322e-05 -0.000681524)
(0.722082 2.17118e-05 -0.000254707)
(0.722505 1.61004e-05 -0.000111699)
(0.722643 1.1647e-05 -5.92202e-05)
(0.72271 8.26619e-06 -3.31255e-05)
(0.722755 5.73932e-06 -1.95567e-05)
(0.722625 4.80166e-05 -0.000825418)
(0.722074 4.13989e-05 -0.000684468)
(0.722075 2.99895e-05 -0.000256583)
(0.722499 2.0627e-05 -0.000112777)
(0.722639 1.40596e-05 -5.98328e-05)
(0.722706 9.50692e-06 -3.34763e-05)
(0.722752 6.34769e-06 -1.97583e-05)
(0.722619 8.12904e-05 -0.000833453)
(0.722062 6.81346e-05 -0.000691048)
(0.722061 4.22752e-05 -0.000260209)
(0.722489 2.55351e-05 -0.00011457)
(0.722632 1.60345e-05 -6.07404e-05)
(0.722702 1.01696e-05 -3.39476e-05)
(0.722749 6.44951e-06 -2.00075e-05)