/*--------------------------------*- C++ -*----------------------------------*\
  =========                 |
  \\      /  F ield         | OpenFOAM: The Open Source CFD Toolbox
   \\    /   O peration     | Website:  https://openfoam.org
    \\  /    A nd           | Version:  7
     \\/     M anipulation  |
\*---------------------------------------------------------------------------*/
FoamFile
{
    version     2.0;
    format      ascii;
    class       volScalarField;
    location    "0.5";
    object      p;
}
// * * * * * * * * * * * * * * * * * * * * * * * * * * * * * * * * * * * * * //

dimensions      [0 2 -2 0 0 0 0];

internalField   nonuniform List<scalar> 
7784
(
1.90045e-09
0.0140209
0.0483137
0.0693849
0.0849105
0.0976415
0.108671
0.0015082
0.0153442
0.0487843
0.0695347
0.0849741
0.0976735
0.108688
0.00222642
0.0159451
0.0491214
0.069708
0.085067
0.0977256
0.108719
0.00261742
0.0162793
0.0493536
0.0698548
0.0851578
0.0977819
0.108753
0.00285831
0.0164912
0.0495161
0.0699699
0.0852363
0.0978343
0.108788
0.00301392
0.0166314
0.0496304
0.0700569
0.0852996
0.097879
0.108819
0.00311668
0.0167257
0.0497103
0.0701207
0.0853482
0.0979147
0.108844
0.0302049
0.0399268
0.0582875
0.0741038
0.0875335
0.099213
0.109648
0.0308466
0.0404946
0.0585741
0.0742269
0.0875915
0.0992429
0.109664
0.0312951
0.0408762
0.0588193
0.0743682
0.0876725
0.0992901
0.109692
0.0315926
0.0411338
0.0590075
0.0744937
0.0877532
0.0993415
0.109725
0.0317936
0.0413122
0.0591478
0.0745958
0.0878245
0.0993899
0.109757
0.0319308
0.0414363
0.0592504
0.0746751
0.087883
0.0994318
0.109786
0.0320243
0.0415223
0.0593238
0.0747343
0.0879285
0.0994655
0.10981
0.0522024
0.0585077
0.06944
0.0809208
0.0918475
0.102006
0.111464
0.052406
0.0587103
0.0695821
0.0810018
0.0918925
0.102032
0.111479
0.0526429
0.0589206
0.0697357
0.0811018
0.0919552
0.102071
0.111504
0.0528385
0.059094
0.0698703
0.0811976
0.0920204
0.102114
0.111532
0.0529872
0.0592279
0.0699794
0.0812802
0.09208
0.102156
0.11156
0.0530966
0.0593279
0.0700637
0.0813469
0.0921304
0.102192
0.111586
0.0531749
0.0594004
0.0701264
0.0813981
0.0921704
0.102222
0.111608
0.118633
0.127939
0.136886
0.145714
0.15465
0.163932
0.118643
0.127945
0.136888
0.145714
0.154647
0.163925
0.118661
0.127954
0.136892
0.145714
0.154642
0.163914
0.118682
0.127967
0.136898
0.145713
0.154635
0.1639
0.118704
0.127979
0.136904
0.145713
0.154629
0.163886
0.118724
0.127992
0.136909
0.145713
0.154623
0.163873
0.118741
0.128002
0.136914
0.145713
0.154618
0.163863
0.119232
0.128267
0.136994
0.145618
0.154336
0.163353
0.119241
0.128272
0.136996
0.145618
0.154334
0.163347
0.119258
0.128282
0.137
0.145618
0.154329
0.163336
0.119278
0.128293
0.137005
0.145617
0.154322
0.163323
0.119299
0.128305
0.137011
0.145617
0.154316
0.16331
0.119318
0.128317
0.137016
0.145617
0.15431
0.163298
0.119334
0.128327
0.137021
0.145617
0.154306
0.163287
0.120375
0.128902
0.137203
0.145429
0.153726
0.162242
0.120383
0.128906
0.137205
0.145429
0.153723
0.162236
0.120398
0.128915
0.137209
0.145429
0.153719
0.162226
0.120416
0.128925
0.137214
0.145429
0.153713
0.162215
0.120434
0.128936
0.137219
0.145428
0.153708
0.162203
0.120452
0.128947
0.137224
0.145428
0.153703
0.162192
0.120466
0.128956
0.137228
0.145428
0.153698
0.162183
0.173851
0.184809
0.197421
0.212745
0.233229
0.26556
0.285286
0.173839
0.184787
0.197375
0.212634
0.232869
0.264537
0.284273
0.173818
0.184749
0.197307
0.212504
0.232615
0.264088
0.283773
0.173794
0.184708
0.19724
0.212396
0.232444
0.263844
0.283494
0.17377
0.184671
0.197183
0.212312
0.232325
0.26369
0.283322
0.173749
0.184639
0.197137
0.212249
0.232242
0.263588
0.28321
0.173732
0.184614
0.197103
0.212203
0.232184
0.26352
0.283136
0.172906
0.183292
0.194904
0.208245
0.22395
0.242375
0.25414
0.172894
0.183271
0.194861
0.208151
0.223726
0.241921
0.253678
0.172875
0.183237
0.194801
0.208046
0.223541
0.241634
0.253358
0.172852
0.1832
0.194742
0.207953
0.223402
0.241445
0.253145
0.17283
0.183165
0.19469
0.207878
0.223299
0.241316
0.253
0.17281
0.183136
0.194648
0.207821
0.223225
0.241226
0.252902
0.172794
0.183112
0.194616
0.207778
0.223172
0.241164
0.252835
0.171135
0.180572
0.190711
0.201634
0.213167
0.224347
0.23135
0.171125
0.180554
0.190677
0.201572
0.213057
0.224189
0.231217
0.171108
0.180525
0.190631
0.201497
0.212942
0.224034
0.231051
0.171088
0.180494
0.190583
0.201427
0.212843
0.223908
0.230911
0.171068
0.180465
0.19054
0.201367
0.212763
0.223811
0.230805
0.171051
0.180439
0.190504
0.201319
0.212703
0.223739
0.230726
0.171036
0.180418
0.190476
0.201282
0.212658
0.223687
0.23067
0.00318371
0.0167879
0.0497644
0.0701652
0.0853832
0.0979412
0.108863
0.00322436
0.016826
0.049798
0.0701933
0.0854058
0.0979586
0.108876
0.00324361
0.0168441
0.0498141
0.070207
0.0854169
0.0979672
0.108882
0.00324363
0.0168441
0.0498141
0.070207
0.0854169
0.0979673
0.108882
0.00322444
0.0168261
0.049798
0.0701934
0.0854059
0.0979587
0.108876
0.00318385
0.0167881
0.0497645
0.0701653
0.0853834
0.0979414
0.108863
0.0320864
0.0415802
0.0593743
0.0747761
0.0879616
0.0994906
0.109828
0.0321246
0.0416159
0.0594059
0.0748027
0.087983
0.0995072
0.10984
0.0321427
0.041633
0.0594212
0.0748156
0.0879936
0.0995154
0.109847
0.0321428
0.041633
0.0594212
0.0748157
0.0879936
0.0995155
0.109847
0.0321246
0.041616
0.059406
0.0748028
0.0879831
0.0995073
0.109841
0.0320866
0.0415803
0.0593745
0.0747762
0.0879618
0.0994908
0.109828
0.0532286
0.0594506
0.0701705
0.081435
0.0921998
0.102245
0.111624
0.0532622
0.0594821
0.0701986
0.0814588
0.0922191
0.10226
0.111635
0.0532784
0.0594974
0.0702122
0.0814705
0.0922287
0.102268
0.111641
0.0532784
0.0594974
0.0702122
0.0814705
0.0922288
0.102268
0.111641
0.0532623
0.0594822
0.0701987
0.0814589
0.0922193
0.10226
0.111636
0.0532288
0.0594507
0.0701707
0.0814352
0.0922001
0.102245
0.111625
0.118754
0.12801
0.136918
0.145713
0.154614
0.163855
0.118763
0.128016
0.136921
0.145713
0.154611
0.163849
0.118768
0.128019
0.136922
0.145713
0.15461
0.163847
0.118768
0.128019
0.136922
0.145713
0.15461
0.163847
0.118763
0.128016
0.136921
0.145713
0.154611
0.16385
0.118755
0.128011
0.136918
0.145713
0.154614
0.163855
0.119347
0.128335
0.137025
0.145617
0.154302
0.16328
0.119355
0.12834
0.137027
0.145617
0.154299
0.163275
0.11936
0.128343
0.137029
0.145617
0.154298
0.163272
0.11936
0.128343
0.137029
0.145617
0.154298
0.163272
0.119355
0.128341
0.137028
0.145617
0.1543
0.163275
0.119347
0.128335
0.137025
0.145617
0.154302
0.16328
0.120478
0.128963
0.137232
0.145428
0.153695
0.162176
0.120486
0.128968
0.137234
0.145429
0.153693
0.162172
0.12049
0.128971
0.137236
0.145429
0.153692
0.162169
0.12049
0.128971
0.137236
0.145429
0.153692
0.162169
0.120486
0.128969
0.137235
0.145429
0.153693
0.162172
0.120478
0.128964
0.137232
0.145429
0.153695
0.162177
0.173719
0.184596
0.197078
0.212171
0.232146
0.263476
0.283088
0.173711
0.184584
0.197062
0.212151
0.232122
0.263449
0.283059
0.173706
0.184578
0.197054
0.212141
0.23211
0.263436
0.283045
0.173707
0.184578
0.197054
0.212141
0.23211
0.263436
0.283045
0.173711
0.184584
0.197062
0.212151
0.232122
0.263449
0.283059
0.17372
0.184596
0.197079
0.212172
0.232146
0.263477
0.283089
0.172782
0.183095
0.194592
0.207748
0.223136
0.241123
0.25279
0.172773
0.183083
0.194577
0.20773
0.223113
0.241097
0.252763
0.172769
0.183078
0.19457
0.20772
0.223102
0.241085
0.25275
0.17277
0.183078
0.19457
0.207721
0.223103
0.241085
0.25275
0.172774
0.183084
0.194578
0.20773
0.223114
0.241098
0.252763
0.172782
0.183095
0.194593
0.207749
0.223137
0.241124
0.252791
0.171025
0.180402
0.190455
0.201256
0.212626
0.223651
0.230632
0.171018
0.180392
0.190441
0.201239
0.212606
0.223629
0.230608
0.171014
0.180387
0.190435
0.201231
0.212596
0.223618
0.230596
0.171015
0.180387
0.190435
0.201231
0.212597
0.223618
0.230597
0.171018
0.180392
0.190442
0.201239
0.212607
0.223629
0.230608
0.171026
0.180403
0.190456
0.201256
0.212627
0.223652
0.230633
0.00311689
0.0167259
0.0497105
0.0701209
0.0853485
0.097915
0.108844
0.00301423
0.0166317
0.0496307
0.0700572
0.0853
0.0978794
0.108819
0.00285869
0.0164916
0.0495164
0.0699703
0.0852367
0.0978347
0.108788
0.00261787
0.0162798
0.049354
0.0698553
0.0851584
0.0977824
0.108754
0.00222691
0.0159456
0.0491219
0.0697085
0.0850676
0.0977262
0.108719
0.0015087
0.0153447
0.0487849
0.0695353
0.0849747
0.0976742
0.108689
5.1849e-07
0.0140215
0.0483142
0.0693855
0.0849111
0.0976421
0.108672
0.0320245
0.0415226
0.0593241
0.0747345
0.0879288
0.0994658
0.10981
0.0319311
0.0414366
0.0592507
0.0746755
0.0878834
0.0994322
0.109786
0.031794
0.0413126
0.0591482
0.0745963
0.0878249
0.0993905
0.109757
0.0315931
0.0411343
0.059008
0.0744942
0.0877537
0.0993421
0.109725
0.0312956
0.0408768
0.0588199
0.0743688
0.0876731
0.0992907
0.109693
0.0308471
0.0404952
0.0585747
0.0742275
0.0875922
0.0992435
0.109665
0.0302054
0.0399274
0.0582881
0.0741045
0.0875342
0.0992137
0.109648
0.0531752
0.0594007
0.0701266
0.0813984
0.0921707
0.102223
0.111608
0.053097
0.0593283
0.0700641
0.0813473
0.0921308
0.102193
0.111586
0.0529877
0.0592283
0.0699798
0.0812807
0.0920805
0.102156
0.111561
0.052839
0.0590945
0.0698709
0.0811982
0.092021
0.102115
0.111532
0.0526435
0.0589212
0.0697363
0.0811024
0.0919559
0.102071
0.111504
0.0524066
0.0587109
0.0695828
0.0810024
0.0918932
0.102032
0.11148
0.052203
0.0585084
0.0694406
0.0809215
0.0918482
0.102007
0.111465
0.118742
0.128003
0.136915
0.145713
0.154618
0.163863
0.118725
0.127992
0.13691
0.145714
0.154623
0.163874
0.118704
0.12798
0.136904
0.145714
0.15463
0.163887
0.118683
0.127967
0.136899
0.145714
0.154637
0.163901
0.118661
0.127955
0.136893
0.145715
0.154643
0.163915
0.118644
0.127946
0.136889
0.145715
0.154648
0.163927
0.118634
0.12794
0.136887
0.145716
0.154651
0.163933
0.119334
0.128328
0.137022
0.145618
0.154306
0.163288
0.119318
0.128318
0.137017
0.145618
0.154311
0.163299
0.119299
0.128306
0.137012
0.145618
0.154317
0.163311
0.119279
0.128294
0.137006
0.145618
0.154324
0.163324
0.119258
0.128282
0.137001
0.145619
0.15433
0.163337
0.119242
0.128273
0.136997
0.145619
0.154335
0.163348
0.119233
0.128268
0.136995
0.145619
0.154337
0.163354
0.120467
0.128957
0.137229
0.145429
0.153699
0.162184
0.120452
0.128947
0.137225
0.145429
0.153703
0.162193
0.120435
0.128937
0.13722
0.145429
0.153709
0.162204
0.120417
0.128926
0.137215
0.14543
0.153715
0.162216
0.120399
0.128916
0.13721
0.14543
0.15372
0.162228
0.120384
0.128907
0.137206
0.14543
0.153725
0.162237
0.120375
0.128902
0.137204
0.145431
0.153727
0.162243
0.173733
0.184615
0.197104
0.212204
0.232186
0.263522
0.283137
0.17375
0.18464
0.197139
0.21225
0.232243
0.26359
0.283211
0.173771
0.184672
0.197185
0.212313
0.232327
0.263691
0.283323
0.173795
0.18471
0.197242
0.212398
0.232446
0.263846
0.283496
0.17382
0.184751
0.197308
0.212506
0.232617
0.26409
0.283775
0.173841
0.184788
0.197377
0.212636
0.232871
0.264539
0.284275
0.173853
0.184811
0.197423
0.212747
0.233231
0.265563
0.285288
0.172795
0.183113
0.194617
0.207779
0.223173
0.241165
0.252836
0.172811
0.183137
0.19465
0.207822
0.223226
0.241228
0.252903
0.172831
0.183167
0.194692
0.20788
0.223301
0.241318
0.253002
0.172853
0.183201
0.194744
0.207955
0.223404
0.241447
0.253147
0.172876
0.183239
0.194803
0.208047
0.223543
0.241636
0.25336
0.172896
0.183273
0.194863
0.208153
0.223728
0.241923
0.253681
0.172907
0.183294
0.194906
0.208246
0.223952
0.242377
0.254142
0.171037
0.180419
0.190477
0.201283
0.212659
0.223688
0.230671
0.171052
0.18044
0.190505
0.20132
0.212704
0.22374
0.230728
0.17107
0.180466
0.190542
0.201368
0.212765
0.223813
0.230806
0.171089
0.180496
0.190585
0.201428
0.212845
0.22391
0.230913
0.171109
0.180527
0.190633
0.201499
0.212944
0.224036
0.231053
0.171126
0.180555
0.190679
0.201574
0.213058
0.224191
0.231219
0.171137
0.180574
0.190713
0.201636
0.213169
0.224349
0.231352
0.0682067
0.0724155
0.079668
0.0881234
0.0968599
0.10547
0.113816
0.0682719
0.0724983
0.0797388
0.0881722
0.0968912
0.10549
0.113829
0.068394
0.0726127
0.0798307
0.0882385
0.0969365
0.10552
0.113848
0.0685153
0.0727232
0.0799213
0.088307
0.0969858
0.105554
0.113872
0.0686185
0.0728177
0.0800009
0.0883697
0.0970328
0.105588
0.113895
0.0687004
0.0728934
0.0800661
0.0884226
0.0970738
0.105619
0.113917
0.0687621
0.0729509
0.0801165
0.0884645
0.0971071
0.105644
0.113936
0.0804976
0.0834329
0.0885666
0.0949469
0.101941
0.109165
0.11642
0.0805173
0.0834706
0.0886034
0.0949759
0.101962
0.10918
0.116429
0.0805808
0.0835338
0.0886582
0.0950187
0.101993
0.109202
0.116444
0.0806547
0.0836029
0.0887176
0.0950661
0.102029
0.109228
0.116463
0.080724
0.0836675
0.0887735
0.0951117
0.102065
0.109255
0.116482
0.080783
0.0837226
0.0888219
0.095152
0.102097
0.109279
0.116499
0.0808296
0.0837664
0.0888609
0.0951849
0.102123
0.1093
0.116515
0.0902136
0.0923535
0.0961651
0.101105
0.106754
0.112806
0.119062
0.0902166
0.0923714
0.0961851
0.101122
0.106768
0.112816
0.119069
0.0902502
0.092407
0.0962179
0.10115
0.106789
0.112832
0.119081
0.0902951
0.0924501
0.0962564
0.101182
0.106815
0.112851
0.119094
0.0903409
0.0924935
0.096295
0.101214
0.106841
0.112872
0.119109
0.0903824
0.0925325
0.09633
0.101244
0.106865
0.11289
0.119123
0.0904166
0.092565
0.0963592
0.101269
0.106886
0.112907
0.119136
0.0980515
0.0996741
0.102611
0.106526
0.111142
0.116225
0.121603
0.0980482
0.0996828
0.102622
0.106536
0.111151
0.116232
0.121608
0.0980659
0.0997031
0.102642
0.106554
0.111165
0.116244
0.121617
0.0980934
0.09973
0.102667
0.106576
0.111183
0.116258
0.121627
0.0981235
0.0997589
0.102693
0.106598
0.111202
0.116272
0.121638
0.0981521
0.0997862
0.102718
0.10662
0.11122
0.116287
0.121649
0.0981768
0.0998097
0.102739
0.106639
0.111235
0.116299
0.121659
0.104465
0.105737
0.108065
0.111232
0.115048
0.119338
0.12396
0.10446
0.105741
0.108072
0.111238
0.115053
0.119343
0.123964
0.104469
0.105752
0.108084
0.11125
0.115063
0.119351
0.12397
0.104486
0.105769
0.1081
0.111264
0.115075
0.119361
0.123978
0.104506
0.105788
0.108118
0.11128
0.115089
0.119372
0.123986
0.104525
0.105807
0.108135
0.111295
0.115102
0.119382
0.123994
0.104543
0.105824
0.108151
0.111309
0.115113
0.119392
0.124002
0.109764
0.110786
0.112676
0.115281
0.11847
0.122113
0.126091
0.109758
0.110788
0.11268
0.115285
0.118474
0.122116
0.126094
0.109763
0.110795
0.112687
0.115292
0.118481
0.122122
0.126098
0.109773
0.110805
0.112698
0.115302
0.118489
0.122129
0.126104
0.109785
0.110818
0.112709
0.115313
0.118498
0.122136
0.12611
0.109799
0.110831
0.112722
0.115324
0.118508
0.122144
0.126116
0.109811
0.110843
0.112732
0.115333
0.118516
0.122151
0.126122
0.121894
0.129758
0.137487
0.14517
0.152897
0.160757
0.121902
0.129763
0.137489
0.14517
0.152895
0.160752
0.121914
0.12977
0.137493
0.14517
0.152891
0.160744
0.121929
0.129779
0.137497
0.14517
0.152886
0.160734
0.121945
0.129788
0.137501
0.14517
0.152882
0.160724
0.12196
0.129798
0.137506
0.14517
0.152877
0.160715
0.121973
0.129806
0.13751
0.14517
0.152874
0.160707
0.123619
0.130745
0.137816
0.144867
0.151938
0.159065
0.123625
0.130749
0.137818
0.144867
0.151936
0.159061
0.123635
0.130755
0.137821
0.144867
0.151933
0.159055
0.123647
0.130762
0.137824
0.144867
0.15193
0.159047
0.12366
0.13077
0.137828
0.144867
0.151926
0.159039
0.123672
0.130778
0.137832
0.144867
0.151922
0.159032
0.123683
0.130785
0.137835
0.144867
0.151919
0.159026
0.125407
0.131782
0.138163
0.144545
0.150927
0.157306
0.125411
0.131785
0.138164
0.144545
0.150926
0.157303
0.125419
0.131789
0.138166
0.144545
0.150924
0.157298
0.125429
0.131795
0.138169
0.144545
0.150921
0.157292
0.125439
0.131802
0.138173
0.144545
0.150918
0.157286
0.125449
0.131808
0.138176
0.144545
0.150915
0.15728
0.125458
0.131814
0.138179
0.144545
0.150913
0.157275
0.127157
0.132808
0.138507
0.144222
0.149924
0.15558
0.12716
0.13281
0.138508
0.144222
0.149923
0.155578
0.127166
0.132814
0.13851
0.144222
0.149921
0.155574
0.127173
0.132818
0.138512
0.144222
0.149919
0.15557
0.127181
0.132823
0.138515
0.144222
0.149917
0.155565
0.127189
0.132828
0.138518
0.144223
0.149915
0.155561
0.127196
0.132833
0.13852
0.144223
0.149913
0.155557
0.128802
0.133781
0.138835
0.143913
0.148969
0.153953
0.128805
0.133783
0.138836
0.143913
0.148968
0.153951
0.128809
0.133786
0.138837
0.143913
0.148967
0.153949
0.128815
0.13379
0.138839
0.143913
0.148965
0.153946
0.128821
0.133794
0.138841
0.143913
0.148964
0.153942
0.128827
0.133797
0.138843
0.143914
0.148962
0.153939
0.128832
0.133801
0.138845
0.143914
0.148961
0.153936
0.130307
0.134678
0.139137
0.143626
0.148087
0.152463
0.130309
0.134679
0.139138
0.143626
0.148087
0.152462
0.130312
0.134681
0.139139
0.143626
0.148086
0.15246
0.130316
0.134684
0.13914
0.143626
0.148085
0.152458
0.13032
0.134687
0.139142
0.143626
0.148084
0.152456
0.130325
0.13469
0.139144
0.143627
0.148083
0.152454
0.130329
0.134693
0.139145
0.143627
0.148082
0.152452
0.16883
0.177175
0.185793
0.19456
0.203095
0.210518
0.214992
0.168821
0.17716
0.185769
0.194523
0.203041
0.210458
0.214961
0.168807
0.177138
0.185736
0.194474
0.202974
0.210376
0.214878
0.168792
0.177114
0.1857
0.194424
0.202908
0.210297
0.214793
0.168775
0.17709
0.185666
0.194379
0.20285
0.210229
0.21472
0.168761
0.177069
0.185637
0.194341
0.202804
0.210175
0.214661
0.168748
0.177051
0.185614
0.194311
0.202768
0.210134
0.214617
0.166268
0.17353
0.180774
0.187807
0.194255
0.199492
0.20254
0.166261
0.17352
0.180759
0.187785
0.194228
0.199467
0.202537
0.16625
0.173504
0.180736
0.187754
0.194189
0.199424
0.202497
0.166238
0.173486
0.18071
0.18772
0.194146
0.199375
0.202446
0.166225
0.173467
0.180685
0.187688
0.194106
0.199329
0.202397
0.166213
0.17345
0.180663
0.187659
0.194072
0.19929
0.202356
0.166203
0.173436
0.180644
0.187636
0.194044
0.199259
0.202323
0.163658
0.169927
0.176001
0.181685
0.186674
0.190547
0.192741
0.163653
0.169919
0.175991
0.181672
0.18666
0.190537
0.192747
0.163645
0.169908
0.175975
0.181652
0.186637
0.190514
0.192727
0.163636
0.169895
0.175957
0.18163
0.18661
0.190484
0.192697
0.163626
0.169881
0.175939
0.181607
0.186583
0.190454
0.192666
0.163617
0.169868
0.175922
0.181586
0.186559
0.190427
0.192637
0.163609
0.169857
0.175908
0.181569
0.186538
0.190404
0.192613
0.161142
0.166533
0.171637
0.176281
0.180231
0.183205
0.184855
0.161138
0.166528
0.171631
0.176273
0.180223
0.183201
0.184864
0.161133
0.16652
0.17162
0.176261
0.18021
0.183188
0.184855
0.161126
0.166511
0.171608
0.176246
0.180193
0.18317
0.184837
0.161119
0.166501
0.171595
0.17623
0.180175
0.183151
0.184817
0.161112
0.166492
0.171583
0.176216
0.180158
0.183132
0.184798
0.161106
0.166483
0.171573
0.176203
0.180143
0.183116
0.184781
0.158803
0.163438
0.167745
0.171582
0.174773
0.177125
0.178412
0.158801
0.163434
0.167741
0.171578
0.174769
0.177124
0.178421
0.158797
0.163429
0.167735
0.17157
0.174761
0.177118
0.178418
0.158792
0.163423
0.167727
0.171561
0.174751
0.177107
0.178407
0.158787
0.163416
0.167718
0.17155
0.174739
0.177094
0.178395
0.158782
0.163409
0.167709
0.17154
0.174727
0.177082
0.178382
0.158778
0.163403
0.167701
0.171531
0.174717
0.17707
0.17837
0.156686
0.160675
0.164331
0.167536
0.170158
0.172063
0.173095
0.156685
0.160673
0.164329
0.167534
0.170157
0.172064
0.173104
0.156682
0.16067
0.164325
0.167529
0.170152
0.17206
0.173103
0.156679
0.160665
0.164319
0.167523
0.170146
0.172054
0.173097
0.156675
0.16066
0.164313
0.167516
0.170138
0.172046
0.173089
0.156671
0.160655
0.164307
0.167509
0.17013
0.172038
0.17308
0.156668
0.160651
0.164302
0.167502
0.170123
0.17203
0.173072
0.0688059
0.0729921
0.0801531
0.0884955
0.0971321
0.105664
0.11395
0.068834
0.0730186
0.0801768
0.0885157
0.0971487
0.105677
0.11396
0.0688477
0.0730315
0.0801884
0.0885258
0.097157
0.105683
0.113965
0.0688477
0.0730315
0.0801885
0.0885258
0.0971571
0.105683
0.113965
0.0688341
0.0730187
0.0801769
0.0885159
0.0971489
0.105677
0.11396
0.0688062
0.0729924
0.0801534
0.0884957
0.0971324
0.105664
0.113951
0.080864
0.0837988
0.0888899
0.0952098
0.102144
0.109316
0.116527
0.0808864
0.08382
0.0889091
0.0952264
0.102158
0.109327
0.116535
0.0808975
0.0838306
0.0889187
0.0952347
0.102164
0.109332
0.11654
0.0808976
0.0838307
0.0889187
0.0952348
0.102165
0.109332
0.11654
0.0808866
0.0838202
0.0889093
0.0952266
0.102158
0.109327
0.116536
0.0808643
0.0837991
0.0888903
0.0952101
0.102144
0.109316
0.116527
0.0904426
0.0925896
0.0963815
0.101288
0.106902
0.11292
0.119146
0.09046
0.0926062
0.0963966
0.101302
0.106913
0.112928
0.119152
0.0904687
0.0926145
0.0964041
0.101308
0.106918
0.112933
0.119156
0.0904688
0.0926146
0.0964042
0.101308
0.106918
0.112933
0.119156
0.0904602
0.0926064
0.0963968
0.101302
0.106913
0.112929
0.119153
0.090443
0.09259
0.0963819
0.101289
0.106902
0.11292
0.119146
0.098196
0.0998281
0.102756
0.106653
0.111248
0.116309
0.121667
0.0982091
0.0998406
0.102767
0.106663
0.111256
0.116316
0.121672
0.0982158
0.099847
0.102773
0.106669
0.111261
0.11632
0.121675
0.0982159
0.099847
0.102773
0.106669
0.111261
0.11632
0.121675
0.0982094
0.0998409
0.102768
0.106664
0.111256
0.116316
0.121672
0.0981965
0.0998285
0.102756
0.106654
0.111248
0.11631
0.121667
0.104557
0.105837
0.108163
0.11132
0.115123
0.1194
0.124008
0.104566
0.105847
0.108172
0.111327
0.115129
0.119405
0.124012
0.104571
0.105851
0.108176
0.111331
0.115133
0.119408
0.124014
0.104571
0.105852
0.108176
0.111332
0.115133
0.119408
0.124014
0.104567
0.105847
0.108172
0.111328
0.11513
0.119405
0.124012
0.104557
0.105838
0.108163
0.11132
0.115123
0.1194
0.124008
0.109821
0.110852
0.112741
0.115341
0.118523
0.122157
0.126126
0.109828
0.110859
0.112748
0.115347
0.118528
0.122161
0.126129
0.109832
0.110862
0.112751
0.11535
0.118531
0.122163
0.126131
0.109832
0.110863
0.112751
0.11535
0.118531
0.122163
0.126131
0.109828
0.110859
0.112748
0.115347
0.118528
0.122161
0.12613
0.109821
0.110853
0.112742
0.115342
0.118524
0.122157
0.126127
0.168739
0.177038
0.185596
0.194289
0.202742
0.210105
0.214586
0.168732
0.177029
0.185585
0.194275
0.202725
0.210086
0.214566
0.168729
0.177024
0.185579
0.194268
0.202717
0.210077
0.214557
0.168729
0.177024
0.185579
0.194268
0.202717
0.210077
0.214557
0.168733
0.177029
0.185585
0.194276
0.202725
0.210087
0.214567
0.168739
0.177038
0.185597
0.19429
0.202742
0.210106
0.214587
0.166195
0.173425
0.18063
0.187618
0.194024
0.199237
0.202299
0.16619
0.173418
0.18062
0.187607
0.19401
0.199222
0.202283
0.166188
0.173414
0.180616
0.187601
0.194004
0.199214
0.202275
0.166188
0.173414
0.180616
0.187601
0.194004
0.199214
0.202275
0.16619
0.173418
0.180621
0.187607
0.194011
0.199222
0.202283
0.166196
0.173426
0.18063
0.187619
0.194024
0.199237
0.202299
0.163603
0.169849
0.175897
0.181555
0.186523
0.190387
0.192595
0.163599
0.169843
0.175889
0.181546
0.186512
0.190375
0.192583
0.163596
0.16984
0.175886
0.181542
0.186507
0.19037
0.192577
0.163597
0.16984
0.175886
0.181542
0.186507
0.19037
0.192577
0.163599
0.169843
0.17589
0.181546
0.186513
0.190376
0.192583
0.163603
0.169849
0.175898
0.181556
0.186523
0.190387
0.192595
0.161101
0.166477
0.171564
0.176193
0.180132
0.183103
0.184767
0.161098
0.166472
0.171558
0.176186
0.180124
0.183095
0.184758
0.161096
0.16647
0.171556
0.176182
0.18012
0.18309
0.184754
0.161096
0.16647
0.171556
0.176183
0.18012
0.18309
0.184754
0.161098
0.166472
0.171559
0.176186
0.180124
0.183095
0.184759
0.161101
0.166477
0.171565
0.176193
0.180132
0.183104
0.184768
0.158774
0.163398
0.167695
0.171523
0.174708
0.177061
0.17836
0.158771
0.163394
0.167691
0.171518
0.174703
0.177055
0.178354
0.15877
0.163393
0.167689
0.171516
0.1747
0.177052
0.17835
0.15877
0.163393
0.167689
0.171516
0.1747
0.177052
0.178351
0.158772
0.163395
0.167691
0.171518
0.174703
0.177055
0.178354
0.158774
0.163398
0.167695
0.171524
0.174709
0.177062
0.178361
0.156666
0.160648
0.164297
0.167497
0.170117
0.172023
0.173066
0.156664
0.160645
0.164294
0.167494
0.170113
0.172019
0.173061
0.156663
0.160644
0.164292
0.167492
0.170111
0.172017
0.173059
0.156663
0.160644
0.164293
0.167492
0.170111
0.172017
0.173059
0.156664
0.160645
0.164294
0.167494
0.170113
0.172019
0.173061
0.156666
0.160648
0.164297
0.167498
0.170117
0.172024
0.173066
0.0687624
0.0729513
0.0801169
0.0884649
0.0971075
0.105645
0.113936
0.0687008
0.0728938
0.0800665
0.0884231
0.0970743
0.105619
0.113918
0.068619
0.0728182
0.0800015
0.0883703
0.0970334
0.105589
0.113896
0.0685159
0.0727238
0.079922
0.0883077
0.0969865
0.105555
0.113872
0.0683947
0.0726134
0.0798314
0.0882392
0.0969373
0.105521
0.113849
0.0682726
0.072499
0.0797395
0.0881729
0.096892
0.105491
0.11383
0.0682074
0.0724162
0.0796687
0.0881242
0.0968607
0.105471
0.113817
0.0808301
0.0837668
0.0888613
0.0951854
0.102124
0.1093
0.116515
0.0807835
0.0837231
0.0888225
0.0951526
0.102097
0.10928
0.1165
0.0807247
0.0836681
0.0887742
0.0951124
0.102065
0.109255
0.116482
0.0806554
0.0836036
0.0887183
0.0950668
0.10203
0.109229
0.116463
0.0805816
0.0835346
0.088659
0.0950195
0.101994
0.109203
0.116445
0.0805181
0.0834715
0.0886043
0.0949767
0.101963
0.109181
0.11643
0.0804984
0.0834338
0.0885674
0.0949477
0.101942
0.109166
0.116421
0.0904172
0.0925655
0.0963597
0.10127
0.106886
0.112907
0.119136
0.090383
0.0925332
0.0963307
0.101245
0.106866
0.112891
0.119124
0.0903417
0.0924942
0.0962958
0.101215
0.106842
0.112872
0.11911
0.0902959
0.0924509
0.0962573
0.101183
0.106816
0.112852
0.119095
0.0902511
0.0924079
0.0962188
0.101151
0.10679
0.112833
0.119081
0.0902175
0.0923724
0.096186
0.101123
0.106769
0.112817
0.11907
0.0902146
0.0923544
0.096166
0.101106
0.106755
0.112807
0.119063
0.0981774
0.0998103
0.10274
0.106639
0.111236
0.1163
0.12166
0.0981529
0.099787
0.102719
0.106621
0.11122
0.116287
0.12165
0.0981243
0.0997598
0.102694
0.106599
0.111202
0.116273
0.121639
0.0980943
0.099731
0.102668
0.106577
0.111184
0.116258
0.121628
0.098067
0.0997041
0.102643
0.106555
0.111166
0.116245
0.121618
0.0980492
0.0996838
0.102623
0.106537
0.111152
0.116233
0.12161
0.0980525
0.0996752
0.102612
0.106527
0.111143
0.116226
0.121604
0.104543
0.105825
0.108151
0.11131
0.115114
0.119392
0.124002
0.104526
0.105808
0.108136
0.111296
0.115103
0.119383
0.123995
0.104507
0.105789
0.108119
0.111281
0.11509
0.119373
0.123987
0.104487
0.10577
0.108101
0.111265
0.115076
0.119362
0.123979
0.10447
0.105753
0.108085
0.111251
0.115064
0.119352
0.123971
0.104461
0.105742
0.108073
0.111239
0.115055
0.119344
0.123965
0.104467
0.105738
0.108067
0.111233
0.115049
0.11934
0.123962
0.109812
0.110843
0.112733
0.115334
0.118517
0.122152
0.126122
0.1098
0.110832
0.112722
0.115324
0.118509
0.122145
0.126117
0.109786
0.110819
0.11271
0.115314
0.118499
0.122137
0.126111
0.109774
0.110806
0.112699
0.115303
0.11849
0.12213
0.126105
0.109764
0.110796
0.112688
0.115294
0.118482
0.122123
0.126099
0.109759
0.110789
0.112681
0.115286
0.118475
0.122117
0.126095
0.109765
0.110788
0.112677
0.115282
0.118472
0.122114
0.126092
0.121973
0.129806
0.13751
0.14517
0.152874
0.160708
0.121961
0.129798
0.137506
0.14517
0.152878
0.160716
0.121946
0.129789
0.137502
0.14517
0.152883
0.160725
0.12193
0.12978
0.137498
0.145171
0.152888
0.160735
0.121915
0.129771
0.137494
0.145171
0.152892
0.160745
0.121903
0.129764
0.13749
0.145171
0.152896
0.160753
0.121895
0.129759
0.137489
0.145171
0.152898
0.160758
0.123684
0.130785
0.137836
0.144868
0.15192
0.159026
0.123673
0.130778
0.137832
0.144868
0.151923
0.159033
0.123661
0.130771
0.137829
0.144868
0.151927
0.15904
0.123648
0.130763
0.137825
0.144868
0.151931
0.159049
0.123636
0.130755
0.137822
0.144868
0.151935
0.159056
0.123626
0.13075
0.137819
0.144868
0.151938
0.159063
0.12362
0.130746
0.137817
0.144868
0.15194
0.159067
0.125458
0.131814
0.138179
0.144546
0.150913
0.157276
0.12545
0.131809
0.138176
0.144546
0.150916
0.157281
0.12544
0.131803
0.138173
0.144546
0.150919
0.157287
0.12543
0.131796
0.13817
0.144546
0.150922
0.157293
0.12542
0.13179
0.138167
0.144546
0.150925
0.157299
0.125412
0.131786
0.138165
0.144546
0.150927
0.157304
0.125408
0.131783
0.138164
0.144546
0.150929
0.157307
0.127197
0.132834
0.138521
0.144223
0.149914
0.155558
0.12719
0.132829
0.138518
0.144223
0.149916
0.155562
0.127182
0.132824
0.138516
0.144223
0.149918
0.155566
0.127174
0.132819
0.138513
0.144223
0.14992
0.155571
0.127167
0.132815
0.138511
0.144223
0.149922
0.155575
0.127161
0.132811
0.138509
0.144223
0.149924
0.155579
0.127158
0.132809
0.138508
0.144223
0.149925
0.155581
0.128833
0.133802
0.138846
0.143914
0.148962
0.153937
0.128828
0.133798
0.138844
0.143914
0.148963
0.15394
0.128822
0.133794
0.138842
0.143914
0.148965
0.153943
0.128816
0.133791
0.13884
0.143914
0.148966
0.153947
0.12881
0.133787
0.138838
0.143914
0.148968
0.15395
0.128806
0.133784
0.138837
0.143914
0.148969
0.153952
0.128804
0.133783
0.138836
0.143914
0.14897
0.153954
0.13033
0.134694
0.139146
0.143628
0.148083
0.152452
0.130326
0.134691
0.139144
0.143627
0.148084
0.152454
0.130321
0.134688
0.139143
0.143627
0.148085
0.152457
0.130317
0.134685
0.139141
0.143627
0.148086
0.152459
0.130313
0.134682
0.13914
0.143627
0.148087
0.152461
0.13031
0.13468
0.139139
0.143627
0.148088
0.152463
0.130308
0.134679
0.139138
0.143627
0.148088
0.152464
0.168749
0.177052
0.185615
0.194312
0.202769
0.210135
0.214618
0.168762
0.17707
0.185638
0.194342
0.202805
0.210177
0.214662
0.168777
0.177091
0.185668
0.19438
0.202852
0.210231
0.214721
0.168793
0.177115
0.185702
0.194426
0.202909
0.210299
0.214794
0.168809
0.17714
0.185737
0.194476
0.202975
0.210378
0.21488
0.168823
0.177162
0.185771
0.194525
0.203043
0.21046
0.214962
0.168831
0.177176
0.185794
0.194562
0.203097
0.21052
0.214994
0.166204
0.173437
0.180645
0.187637
0.194045
0.19926
0.202324
0.166214
0.173451
0.180664
0.18766
0.194073
0.199292
0.202357
0.166226
0.173468
0.180686
0.187689
0.194108
0.199331
0.202399
0.166239
0.173487
0.180712
0.187722
0.194148
0.199377
0.202447
0.166252
0.173505
0.180737
0.187756
0.19419
0.199425
0.202498
0.166262
0.173521
0.18076
0.187787
0.194229
0.199469
0.202539
0.166269
0.173532
0.180776
0.187809
0.194256
0.199494
0.202542
0.16361
0.169858
0.175909
0.181569
0.186539
0.190405
0.192614
0.163618
0.169869
0.175923
0.181587
0.18656
0.190428
0.192638
0.163627
0.169882
0.17594
0.181608
0.186585
0.190455
0.192667
0.163637
0.169896
0.175959
0.181631
0.186612
0.190486
0.192699
0.163646
0.169909
0.175977
0.181654
0.186639
0.190515
0.192729
0.163654
0.169921