/*--------------------------------*- C++ -*----------------------------------*\
  =========                 |
  \\      /  F ield         | OpenFOAM: The Open Source CFD Toolbox
   \\    /   O peration     | Website:  https://openfoam.org
    \\  /    A nd           | Version:  7
     \\/     M anipulation  |
\*---------------------------------------------------------------------------*/
FoamFile
{
    version     2.0;
    format      ascii;
    class       volScalarField;
    location    "0.5";
    object      p;
}
// * * * * * * * * * * * * * * * * * * * * * * * * * * * * * * * * * * * * * //

dimensions      [0 2 -2 0 0 0 0];

internalField   nonuniform List<scalar> 
7936
(
1.828e-08
-0.00138065
-0.00294292
-0.00427991
-0.00530336
-0.00600952
-0.00633013
-0.00619252
-0.00250473
-0.00415956
-0.00608227
-0.00801058
-0.00988473
-0.0116434
-0.0131603
-0.0142377
-0.00503398
-0.00695479
-0.00927148
-0.0118716
-0.0146772
-0.0175892
-0.0204219
-0.0228398
-0.00710564
-0.00941206
-0.0122872
-0.0156771
-0.0195243
-0.0237291
-0.0280679
-0.0320699
-0.00854902
-0.011377
-0.0149315
-0.0192087
-0.0242009
-0.0298423
-0.0359101
-0.04182
-0.00927573
-0.0126988
-0.0169851
-0.0221866
-0.0283644
-0.0355236
-0.0434941
-0.0516049
-0.00915294
-0.013199
-0.0181822
-0.024227
-0.0314906
-0.0400777
-0.0499666
-0.0604322
-0.00810235
-0.012702
-0.0182311
-0.0248669
-0.0328028
-0.0422749
-0.0535909
-0.0663557
-0.000299866
-0.00164382
-0.00305274
-0.00427787
-0.00525658
-0.00593443
-0.00623571
-0.00608663
-0.00275304
-0.00430904
-0.00608861
-0.00791974
-0.00971258
-0.0113934
-0.0128424
-0.0138805
-0.00512346
-0.00695505
-0.00917292
-0.011657
-0.0143246
-0.0170781
-0.0197576
-0.022078
-0.00708148
-0.00931652
-0.0120771
-0.0152986
-0.0189092
-0.0228139
-0.0268319
-0.0306054
-0.0084757
-0.0112102
-0.0146051
-0.0186233
-0.0232221
-0.0283191
-0.033746
-0.0391401
-0.00918178
-0.0124753
-0.0165389
-0.0213637
-0.0269266
-0.0331599
-0.0399244
-0.046912
-0.00904556
-0.0129322
-0.0176292
-0.0231819
-0.0295752
-0.0367551
-0.0447065
-0.0533709
-0.00799427
-0.01242
-0.0176381
-0.0236705
-0.0305237
-0.0381435
-0.0470757
-0.0597421
-0.000647995
-0.00188729
-0.00313899
-0.00428583
-0.00523008
-0.00588903
-0.00621526
-0.00610678
-0.00297499
-0.00444432
-0.00611223
-0.0078484
-0.00959245
-0.0112789
-0.0127863
-0.0139583
-0.00517224
-0.00696513
-0.0090901
-0.0114908
-0.0141215
-0.0168865
-0.0196841
-0.0222819
-0.00704108
-0.00922776
-0.0118996
-0.0150618
-0.018623
-0.02255
-0.0267431
-0.0310088
-0.00840455
-0.0110629
-0.0144007
-0.0183451
-0.0228857
-0.0279808
-0.0335957
-0.0397517
-0.00908937
-0.0123415
-0.0163571
-0.0211214
-0.0266099
-0.032761
-0.0395229
-0.0471587
-0.00896259
-0.0128545
-0.0175503
-0.0231073
-0.0294572
-0.036422
-0.0437142
-0.0521054
-0.00795612
-0.0124468
-0.0177732
-0.0239524
-0.03092
-0.0380633
-0.0452868
-0.059954
-0.00555642
-0.0044447
-0.00294798
-0.00123675
-0.0146104
-0.0140106
-0.0123468
-0.00979248
-0.024314
-0.0242203
-0.0222347
-0.0185137
-0.0348869
-0.0353902
-0.0329332
-0.0275815
-0.0463316
-0.0476058
-0.0445511
-0.0369454
-0.0581428
-0.0604471
-0.0567171
-0.0459551
-0.0691584
-0.0732877
-0.0696923
-0.0563492
-0.0757873
-0.0801484
-0.0754602
-0.0577944
-0.00544879
-0.00434282
-0.00285482
-0.00114758
-0.0142547
-0.0136734
-0.0120343
-0.00949178
-0.0235508
-0.0234975
-0.0215809
-0.017907
-0.0334017
-0.0339838
-0.0317103
-0.0265417
-0.0435717
-0.0449337
-0.0423876
-0.0355295
-0.052986
-0.0552103
-0.0526038
-0.0434535
-0.0606984
-0.0643499
-0.0632578
-0.0537321
-0.0749181
-0.0845876
-0.0833776
-0.0687778
-0.00551686
-0.00444463
-0.00295955
-0.0012158
-0.014531
-0.0140726
-0.0124407
-0.00976561
-0.0241837
-0.0244184
-0.0225218
-0.018554
-0.0346755
-0.0359132
-0.033671
-0.0279187
-0.0459739
-0.0483682
-0.0460134
-0.0380796
-0.0561602
-0.0594543
-0.0574019
-0.047822
-0.0655504
-0.0690049
-0.0677435
-0.0600403
-0.10414
-0.126019
-0.134099
-0.125233
0.000424984
0.00173564
0.00254533
0.00284655
0.00270952
0.00224856
0.0016383
0.000970522
-0.00683768
-0.00418028
-0.0021885
-0.000938978
-0.000370886
-0.000362822
-0.000759903
-0.00143791
-0.0138462
-0.00958618
-0.0063237
-0.00413789
-0.00293376
-0.00256132
-0.00284906
-0.00368396
-0.0204882
-0.0142483
-0.00961244
-0.00650745
-0.00474231
-0.00412565
-0.00439401
-0.00541189
-0.0263552
-0.0177229
-0.0117229
-0.00781829
-0.00566289
-0.00486425
-0.00519825
-0.00646272
-0.0310483
-0.019676
-0.0120203
-0.0073907
-0.00504849
-0.00439211
-0.00502618
-0.00669883
-0.0329048
-0.0179914
-0.00932074
-0.00460138
-0.00262061
-0.00250626
-0.00372869
-0.00598932
-0.025669
-0.00956041
-0.00188501
0.00141572
0.00201194
0.000927294
-0.00126792
-0.00430525
0.000515158
0.00180958
0.00259219
0.00286736
0.0027074
0.00221615
0.00151825
0.000709154
-0.00652922
-0.00392338
-0.00201158
-0.000834831
-0.000324033
-0.000365241
-0.000825555
-0.0016084
-0.0132096
-0.00907898
-0.005994
-0.00394953
-0.00284115
-0.00253588
-0.00287118
-0.00374559
-0.0192794
-0.0133634
-0.00910346
-0.00624136
-0.00461083
-0.00408534
-0.00439462
-0.00541838
-0.0239588
-0.0162387
-0.0110628
-0.00755314
-0.00559257
-0.00486164
-0.00520539
-0.00645485
-0.0275457
-0.0181425
-0.0115081
-0.00728128
-0.00508782
-0.00445328
-0.00506128
-0.00669181
-0.0295198
-0.0173046
-0.00964211
-0.00496851
-0.00292903
-0.00268429
-0.00380887
-0.00598785
-0.0269668
-0.0122874
-0.00392377
0.000284725
0.0014362
0.000647107
-0.00138496
-0.00431237
0.000506731
0.00182632
0.0026016
0.0028587
0.00267513
0.00214953
0.00138136
0.000441354
-0.00657571
-0.00385545
-0.00192785
-0.000774844
-0.000300392
-0.000384999
-0.00090432
-0.00177768
-0.0132952
-0.00892545
-0.00581888
-0.00381566
-0.00275809
-0.00250761
-0.00288367
-0.00379007
-0.0193925
-0.0130361
-0.00881047
-0.00603229
-0.00446102
-0.00401817
-0.00436196
-0.00539096
-0.0239191
-0.0154464
-0.0106397
-0.00733907
-0.00550603
-0.0048286
-0.00516376
-0.00639799
-0.0247709
-0.017176
-0.0111805
-0.00711165
-0.00503834
-0.00443999
-0.00501927
-0.00662617
-0.0269844
-0.0174474
-0.0100375
-0.00495855
-0.00311544
-0.00266779
-0.00374858
-0.00591857
-0.0361738
-0.0180537
-0.00556109
-0.000159244
0.00158727
0.000850128
-0.00123908
-0.00422418
-0.00616114
-0.0111133
-0.016826
-0.023477
-0.0311816
-0.0399052
-0.049334
-0.0563774
-0.00353145
-0.00851375
-0.0139687
-0.0200409
-0.0267401
-0.0338221
-0.0407255
-0.0433302
-0.00051743
-0.00514354
-0.00985978
-0.0147399
-0.0196899
-0.0243373
-0.0280412
-0.0267332
0.00251246
-0.00140483
-0.00495461
-0.00806441
-0.0104569
-0.0115512
-0.0104651
-0.00365875
-0.00606026
-0.0108419
-0.0162338
-0.0222518
-0.0287188
-0.0350575
-0.0410349
-0.0476085
-0.00345137
-0.00828005
-0.0134455
-0.0189323
-0.0244285
-0.0290276
-0.0324701
-0.0380897
-0.000466288
-0.004963
-0.00945386
-0.0138924
-0.0179391
-0.0206249
-0.0215588
-0.0258335
0.00254184
-0.0012631
-0.00464199
-0.00745722
-0.00932046
-0.00934674
-0.00691906
-0.00815496
-0.00606514
-0.0110025
-0.0166407
-0.0230569
-0.0299781
-0.0356752
-0.0375665
-0.045984
-0.00350042
-0.00855403
-0.0140788
-0.0201651
-0.0263837
-0.0300085
-0.0270843
-0.0399162
-0.00055006
-0.00528799
-0.0101876
-0.0153638
-0.0204817
-0.0227211
-0.0168718
-0.0360162
0.00245728
-0.001529
-0.00522433
-0.00864809
-0.011532
-0.0121178
-0.00775015
-0.0235349
-0.0488273
-0.046225
-0.0411006
-0.026263
-0.0243519
-0.01654
-0.011101
0.000637321
-0.00157192
0.00986048
0.0152213
0.0232082
0.0257913
0.0401992
0.045055
0.0476271
-0.0334955
-0.0379869
-0.0394986
-0.032542
-0.00891286
-0.010581
-0.0129222
-0.0104702
0.00868307
0.010907
0.00852586
0.00702398
0.0310457
0.0375919
0.0359235
0.0315069
-0.00518727
-0.0307429
-0.0469241
-0.0602861
0.0223413
-0.00189861
-0.0193963
-0.0397454
0.0356909
0.0159492
-0.00151786
-0.026263
0.0557196
0.0425127
0.0264271
0.000959258
0.00344968
0.0105053
0.0117425
0.0108192
0.0085801
0.00558291
0.00210046
-0.00179826
0.0260006
0.0276031
0.0241357
0.0197592
0.0150489
0.0103439
0.00573805
0.00116018
0.0423423
0.0400404
0.0334159
0.026657
0.020245
0.0143865
0.00907176
0.00416243
0.0552981
0.0485831
0.0394782
0.0310985
0.0236924
0.017266
0.0117058
0.00684222
0.00706577
0.00680222
0.00954939
0.00972791
0.00801618
0.00530268
0.00198202
-0.00180784
0.0241951
0.0210058
0.0204857
0.0180884
0.0142662
0.00998371
0.00558888
0.00113362
0.0362994
0.0317242
0.0287168
0.0244459
0.019214
0.0139164
0.00887319
0.00410805
0.0458856
0.0402517
0.0347284
0.0287359
0.0225444
0.0167261
0.011468
0.00676417
0.0192041
0.00756505
0.0124807
0.0120902
0.00932438
0.00596585
0.00230406
-0.00167655
0.0315621
0.0165453
0.0228942
0.0208726
0.0159101
0.0108302
0.00598847
0.00127472
0.0358027
0.026689
0.0300838
0.0266894
0.0206477
0.0146789
0.00923006
0.00421694
0.0422441
0.0370616
0.0357081
0.0302736
0.0235453
0.0172592
0.0117078
0.0068228
0.00514075
0.00211318
-0.000102812
-0.00122731
-0.000678767
0.0025889
0.0102645
0.0262893
0.00698261
0.00475262
0.00354842
0.0036844
0.00570809
0.0105164
0.0193326
0.0343732
0.00787518
0.00624217
0.00564449
0.00635212
0.00877865
0.0135415
0.0213752
0.0329209
0.00784884
0.00661475
0.00631024
0.00715853
0.00939553
0.0134265
0.0195876
0.0283539
0.00705164
0.0060294
0.00575216
0.0063811
0.00820138
0.0114003
0.0161542
0.0224971
0.00568211
0.00474857
0.00436969
0.00469364
0.00590457
0.00814191
0.0114818
0.0158143
0.00399589
0.00299474
0.00234841
0.00221974
0.00274005
0.00400249
0.00604069
0.0087509
0.00216047
0.000964172
-0.000124458
-0.000822539
-0.00105152
-0.000764234
7.36471e-05
0.00143019
0.00516016
0.00224325
0.00019457
-0.000631731
0.000463604
0.00458954
0.0128065
0.0270099
0.00698427
0.00483496
0.00372945
0.00399561
0.00607197
0.0108111
0.0185668
0.0308498
0.00785987
0.00626696
0.00569567
0.00638209
0.0086574
0.0130103
0.0198092
0.029404
0.00781591
0.00659681
0.00628451
0.0070699
0.00911244
0.0127492
0.0180935
0.0259637
0.007004
0.00598379
0.00567274
0.00621779
0.00791104
0.0108728
0.0152591
0.0212946
0.00561558
0.0046818
0.00428256
0.00455962
0.00568743
0.00779251
0.0109636
0.0151793
0.00385215
0.00288445
0.00225691
0.00211953
0.00260368
0.00380558
0.00577315
0.008441
0.00188375
0.000764199
-0.00022694
-0.000881239
-0.00110474
-0.000828896
-8.03394e-06
0.0013394
0.00510242
0.00212954
3.33321e-05
-0.000731006
0.000953995
0.00616771
0.0180624
0.0337862
0.00692632
0.00478356
0.00372388
0.00419382
0.00606511
0.0111657
0.0185397
0.0279369
0.00778332
0.00621075
0.0056688
0.00631842
0.0084716
0.0126586
0.0188116
0.0266438
0.00771897
0.0065147
0.00621575
0.00694714
0.00886809
0.0122977
0.0172727
0.0259537
0.00688937
0.00587351
0.00554311
0.00602196
0.00766253
0.0105495
0.0149162
0.0214323
0.00548324
0.00455901
0.00415918
0.00441096
0.00550656
0.007585
0.0107945
0.0152766
0.00366906
0.00273278
0.00213878
0.00201333
0.00249212
0.00369008
0.00568999
0.00849119
0.001591
0.000548266
-0.000339849
-0.000941861
-0.00114682
-0.000865067
-3.44348e-05
0.0013529
0.0581522
0.0753281
0.0795684
0.0749082
0.0578005
0.0708452
0.0739909
0.0694496
0.0478685
0.0584353
0.0618136
0.059117
0.038993
0.0464822
0.0492894
0.0477164
0.0296305
0.034915
0.0372106
0.0365004
0.0205145
0.0242013
0.0260889
0.0260485
0.0117369
0.0142821
0.0158938
0.0164115
0.00313025
0.00485651
0.00633672
0.00740472
0.0680649
0.0819594
0.0828984
0.0732277
0.0551067
0.0644046
0.065074
0.0610234
0.0454139
0.0544392
0.056738
0.054128
0.0376298
0.0444108
0.0467399
0.0450866
0.0286265
0.0337528
0.0358836
0.0350992
0.019927
0.0235818
0.0254112
0.0253327
0.0114455
0.0139875
0.0155796
0.0160797
0.00304751
0.00477397
0.00624698
0.00730764
0.120282
0.128689
0.120785
0.0995827
0.0613338
0.0689396
0.0700969
0.0663177
0.0500117
0.059598
0.0614841
0.0578326
0.0403374
0.0482998
0.0505182
0.0478483
0.0301026
0.035879
0.0380262
0.0365933
0.0206268
0.024613
0.0264483
0.0260869
0.0117459
0.0144405
0.0160382
0.0164169
0.00313467
0.00490727
0.00638118
0.00740497
0.0655344
0.053043
0.0420395
0.0328788
0.0252098
0.0187792
0.0133958
0.0088894
0.0603976
0.0499726
0.0402442
0.0318588
0.02479
0.0189087
0.0140499
0.0100907
0.0522653
0.0440577
0.0361223
0.0290643
0.0230112
0.0179305
0.0137453
0.010398
0.0429482
0.0369059
0.0308104
0.0252097
0.0202972
0.0161151
0.0126492
0.00988721
0.0334924
0.0293692
0.0249845
0.020796
0.017014
0.0137217
0.0109501
0.00871479
0.0244416
0.0219301
0.0190568
0.0161609
0.0134325
0.0109733
0.00884021
0.00706665
0.015952
0.0148069
0.0132603
0.0115259
0.00975386
0.00805091
0.00649813
0.00514835
0.00798404
0.00807088
0.00772639
0.0070449
0.0061324
0.00510051
0.0040697
0.00312904
0.0585319
0.0465202
0.03799
0.0306853
0.02408
0.0182307
0.0131415
0.00879796
0.0534134
0.0448296
0.0370301
0.0300273
0.0238022
0.0183912
0.0138016
0.00999129
0.0477062
0.0406087
0.0338542
0.0276941
0.0222299
0.0175048
0.0135271
0.0102999
0.040376
0.0348324
0.0293552
0.0242747
0.0197328
0.0157899
0.0124687
0.00979239
0.0320998
0.0281911
0.0241092
0.0202008
0.0166337
0.0134875
0.01081
0.00863546
0.023721
0.0212964
0.018562
0.0158068
0.0131922
0.0108135
0.00872993
0.00699307
0.0156136
0.0144999
0.0130099
0.0113362
0.00961525
0.00794375
0.00641109
0.00504233
0.00788376
0.00797518
0.00763978
0.00697102
0.00607071
0.00504159
0.00397299
0.0029386
0.0576934
0.0448252
0.0381619
0.0313093
0.0245277
0.0184741
0.0132338
0.0088004
0.0524243
0.0441807
0.0369851
0.0301179
0.0238659
0.0183952
0.0137695
0.00993121
0.0483284
0.0405241
0.0336941
0.0275399
0.0220878
0.0173758
0.0134133
0.0102072
0.0412713
0.0349089
0.0291823
0.0240453
0.0195116
0.015602
0.0123081
0.00969068
0.0326865
0.028245
0.0239442
0.0199697
0.01641
0.0132835
0.0106597
0.00851331
0.024028
0.0213002
0.0184169
0.0156156
0.0129968
0.0106485
0.00859552
0.00685156
0.0157413
0.0144761
0.0129048
0.0111955
0.00947761
0.00782098
0.00626334
0.00486823
0.00792298
0.00795959
0.00758031
0.00690398
0.00599198
0.00493491
0.00381915
0.00269881
-0.000818634
-0.00198109
-0.00315057
-0.00424403
-0.00517609
-0.00587092
-0.00622026
-0.00616932
-0.00303752
-0.00445153
-0.00604416
-0.00774861
-0.00949727
-0.0112121
-0.0128208
-0.0142252
-0.00512578
-0.0068724
-0.00896429
-0.0113505
-0.0139738
-0.0168228
-0.0199421
-0.0231073
-0.00692173
-0.00908774
-0.0117655
-0.0148827
-0.0184793
-0.022695
-0.0274949
-0.0329658
-0.0082606
-0.0109444
-0.0142484
-0.0182003
-0.0229725
-0.0285958
-0.0353342
-0.0439329
-0.0089733
-0.0122411
-0.0162961
-0.0212474
-0.0272125
-0.0343557
-0.0430318
-0.0547819
-0.00890896
-0.0128577
-0.0177385
-0.0237786
-0.0311376
-0.0400446
-0.0499441
-0.0631105
-0.00794186
-0.0126136
-0.0183949
-0.0255561
-0.0346227
-0.0457566
-0.0569339
-0.0801353
-0.000850995
-0.00196169
-0.00306833
-0.00410728
-0.00500714
-0.00569518
-0.00609331
-0.00611209
-0.00297478
-0.00432632
-0.00584216
-0.00747852
-0.00919435
-0.0109536
-0.0127041
-0.0142429
-0.00496303
-0.0066363
-0.00864398
-0.0109652
-0.0136032
-0.0165849
-0.0198259
-0.0233433
-0.00667662
-0.0087605
-0.0113507
-0.0144591
-0.018156
-0.0224302
-0.0275509
-0.0338272
-0.0079666
-0.010561
-0.0138342
-0.0178638
-0.0226446
-0.0284753
-0.0358428
-0.046122
-0.00867245
-0.0118902
-0.0159674
-0.0209692
-0.027073
-0.0346414
-0.0442967
-0.0590167
-0.00864258
-0.0126089
-0.0175944
-0.0237506
-0.0314987
-0.0411539
-0.0520694
-0.0705325
-0.00776546
-0.0125591
-0.0184635
-0.0259682
-0.0358723
-0.0480761
-0.0587833
-0.0911221
-0.00082382
-0.00186045
-0.00288749
-0.00385039
-0.00468683
-0.00533029
-0.00571049
-0.00574283
-0.00281769
-0.00407619
-0.0054831
-0.00700318
-0.00860452
-0.0102562
-0.0119081
-0.013432
-0.00467822
-0.00623405
-0.0080985
-0.0102575
-0.0127168
-0.0154967
-0.0186022
-0.0219884
-0.00627969
-0.00821589
-0.0106218
-0.0135103
-0.0169316
-0.0209669
-0.0257817
-0.03165
-0.00748642
-0.00989729
-0.0129401
-0.0166599
-0.0211371
-0.0265468
-0.0332237
-0.0422289
-0.00814926
-0.0111465
-0.0149367
-0.0195988
-0.0252615
-0.0320772
-0.0401059
-0.0506662
-0.0081226
-0.0118278
-0.0164807
-0.0222562
-0.0293916
-0.0377597
-0.0451152
-0.0497694
-0.00729926
-0.0117842
-0.0173675
-0.0244334
-0.033623
-0.0441377
-0.0498836
-0.0504399
-0.000756957
-0.00169533
-0.00262012
-0.00348139
-0.00422351
-0.00478736
-0.00511145
-0.00512302
-0.00258449
-0.00371861
-0.00497934
-0.00633335
-0.00775182
-0.00920701
-0.0106556
-0.0119899
-0.00428387
-0.00567803
-0.00734007
-0.00925478
-0.0114259
-0.0138744
-0.0166222
-0.0196329
-0.00573893
-0.00746342
-0.00959663
-0.0121455
-0.0151561
-0.0187279
-0.0230402
-0.0284039
-0.00682568
-0.00896008
-0.0116428
-0.0149086
-0.0188562
-0.0236977
-0.0299051
-0.0387532
-0.00740947
-0.0100467
-0.0133686
-0.0174532
-0.0224717
-0.0287743
-0.0370306
-0.0499583
-0.00735712
-0.0105968
-0.0146484
-0.0196967
-0.0260905
-0.034334
-0.0442723
-0.0617721
-0.00657363
-0.0104651
-0.0152916
-0.0214244
-0.029617
-0.0405017
-0.0522563
-0.0885464
-0.00565887
-0.00465113
-0.00317662
-0.00138338
-0.0151911
-0.0149072
-0.0132803
-0.0103901
-0.0258168
-0.026521
-0.0246359
-0.0201227
-0.0385786
-0.0408714
-0.038693
-0.0316903
-0.0547766
-0.0594814
-0.0573823
-0.0467966
-0.0741925
-0.0817472
-0.0807767
-0.066737
-0.108462
-0.120234
-0.12373
-0.112448
-0.230289
-0.265292
-0.283481
-0.290596
-0.00570388
-0.00473467
-0.00328907
-0.0014871
-0.0154183
-0.0152961
-0.0137057
-0.0107043
-0.0266153
-0.0276952
-0.0258518
-0.0210091
-0.040841
-0.0440532
-0.0419184
-0.0341099
-0.0606828
-0.0671765
-0.0653484
-0.0530434
-0.0878695
-0.0990073
-0.0987463
-0.0816737
-0.150604
-0.168839
-0.174234
-0.158576
-0.396126
-0.446204
-0.469513
-0.477917
-0.00536526
-0.00448129
-0.00313
-0.00143211
-0.0145882
-0.0145311
-0.0130455
-0.0101855
-0.0251603
-0.0262352
-0.0245167
-0.019906
-0.0382142
-0.0411437
-0.0391835
-0.0318698
-0.0547705
-0.0601451
-0.0584426
-0.0474858
-0.0706803
-0.0773252
-0.0771642
-0.0644055
-0.0845668
-0.089
-0.0945223
-0.092923
-0.150043
-0.164305
-0.187671
-0.231716
-0.00476908
-0.00396708
-0.00275166
-0.00123144
-0.013008
-0.0129395
-0.0116118
-0.00907524
-0.022471
-0.0234421
-0.0219219
-0.0178412
-0.0345072
-0.0373232
-0.0355974
-0.0290291
-0.0515111
-0.0572095
-0.0557733
-0.0453933
-0.0755861
-0.0853503
-0.0853485
-0.0708
-0.138384
-0.156237
-0.161257
-0.145643
-0.407555
-0.460817
-0.48163
-0.476085
0.000425062
0.0017901
0.0025705
0.00281068
0.002607
0.00206112
0.00126679
0.000288896
-0.0068357
-0.00390531
-0.0019067
-0.000749186
-0.000291232
-0.000406335
-0.000950924
-0.00184736
-0.013864
-0.0089972
-0.00573841
-0.00371502
-0.0026698
-0.00247062
-0.00285882
-0.00376717
-0.0204935
-0.0131167
-0.00865639
-0.0058566
-0.00430562
-0.00392379
-0.00428278
-0.00530112
-0.0253926
-0.0152993
-0.0103551
-0.00712681
-0.00533747
-0.00475185
-0.00506475
-0.00627622
-0.0227576
-0.0157781
-0.0107354
-0.00683444
-0.00471902
-0.00439573
-0.00490774
-0.00649871
-0.0179659
-0.0156154
-0.00978915
-0.00468886
-0.00261458
-0.00241878
-0.00357081
-0.00578648
-0.0354792
-0.0174787
-0.00419202
0.00136186
0.00271796
0.00147298
-0.000908025
-0.00406198
0.000345598
0.00171472
0.00247989
0.00270525
0.00249364
0.00195024
0.00116765
0.000213601
-0.00693633
-0.00389561
-0.00187237
-0.000730957
-0.000290516
-0.000416193
-0.000955652
-0.00183041
-0.0141027
-0.00893791
-0.00560618
-0.00359401
-0.00257905
-0.00238687
-0.00277705
-0.00365797
-0.0210993
-0.0130686
-0.00845342
-0.00566039
-0.0041437
-0.00376709
-0.00413628
-0.00511938
-0.0266867
-0.0153618
-0.010117
-0.00691129
-0.00516782
-0.00461047
-0.00489332
-0.00605435
-0.0243012
-0.0154027
-0.0106296
-0.00667585
-0.00450781
-0.00428328
-0.00473496
-0.00626968
-0.0135417
-0.0168022
-0.0107211
-0.00480934
-0.00246097
-0.00225823
-0.00338962
-0.00557088
-0.0600973
-0.028831
-0.00722506
0.00113706
0.00307859
0.00177657
-0.000684183
-0.0038682
0.000313577
0.00161285
0.00233014
0.00253675
0.0023298
0.00181093
0.00106933
0.000171288
-0.00657209
-0.0036752
-0.00176859
-0.000691941
-0.00028479
-0.000413206
-0.000926181
-0.00174901
-0.0132923
-0.00839352
-0.00526035
-0.00337875
-0.00243587
-0.00226462
-0.00263723
-0.0034623
-0.0195915
-0.0121423
-0.00788755
-0.00531251
-0.00390396
-0.00356775
-0.00391701
-0.00483215
-0.0235238
-0.0137928
-0.00929059
-0.0064592
-0.00488182
-0.00437489
-0.00463591
-0.00571067
-0.0161975
-0.0121699
-0.00940468
-0.00617643
-0.004251
-0.00408988
-0.00449548
-0.00591607
0.00524413
-0.0106426
-0.0088576
-0.00431051
-0.00231445
-0.00217225
-0.00322392
-0.00525647
-0.018834
-0.0186176
-0.00486799
0.00149439
0.00298799
0.00168021
-0.000649797
-0.00364283
0.000326849
0.0014836
0.00212674
0.0023104
0.00211925
0.00164384
0.00096572
0.000147276
-0.00588042
-0.0033014
-0.00159354
-0.000633375
-0.000273797
-0.000397516
-0.000868684
-0.0016176
-0.0120011
-0.00761944
-0.00479803
-0.00310401
-0.00225687
-0.00210633
-0.00244448
-0.00318996
-0.018046
-0.0112184
-0.00728775
-0.00492728
-0.00363852
-0.00333186
-0.00362978
-0.0044459
-0.023166
-0.0134207
-0.00882854
-0.00607556
-0.00457772
-0.00407555
-0.00430129
-0.00525081
-0.0222695
-0.0137202
-0.00951806
-0.0060619
-0.00413821
-0.00388552
-0.00420637
-0.00544428
-0.0151973
-0.0154138
-0.00998159
-0.00471668
-0.00254389
-0.00225788
-0.00309969
-0.00485195
-0.0586659
-0.0247899
-0.00726993
0.000271898
0.00194414
0.00106755
-0.000834287
-0.00339731
-0.00611631
-0.0114115
-0.0178103
-0.0259657
-0.0367476
-0.0499834
-0.0760437
-0.176884
-0.00361915
-0.00915216
-0.015652
-0.023996
-0.035326
-0.0494657
-0.0791108
-0.203875
-0.00072763
-0.0059563
-0.011883
-0.019506
-0.0303694
-0.0452015
-0.0794502
-0.224166
0.00227741
-0.00208796
-0.00658349
-0.0119725
-0.0196743
-0.0319624
-0.0687976
-0.235258
-0.00603398
-0.0114905
-0.0181866
-0.0270142
-0.0388144
-0.052582
-0.0754084
-0.165144
-0.00364713
-0.0093747
-0.016302
-0.0255475
-0.0383866
-0.053526
-0.0811678
-0.203388
-0.000830682
-0.00627712
-0.0126804
-0.0213332
-0.0340705
-0.0508072
-0.0854827
-0.231199
0.00211423
-0.00240663
-0.00726683
-0.0134776
-0.0227534
-0.037136
-0.0778106
-0.258948
-0.00566974
-0.0108203
-0.0171859
-0.0256159
-0.0368214
-0.0495818
-0.070507
-0.158001
-0.00342086
-0.00885884
-0.015477
-0.0243874
-0.0368504
-0.0515493
-0.0786814
-0.200652
-0.000775929
-0.00595216
-0.012097
-0.0205192
-0.0331023
-0.0498623
-0.0848495
-0.230808
0.00200529
-0.00228382
-0.00695253
-0.0130583
-0.0224605
-0.0375711
-0.0802645
-0.263082
-0.00505516
-0.00949057
-0.0149005
-0.0219502
-0.0314806
-0.0433728
-0.0671064
-0.160356
-0.00298007
-0.00763964
-0.0132064
-0.0205515
-0.0308225
-0.0438824
-0.0724367
-0.196133
-0.00056046
-0.00498294
-0.0101124
-0.0169674
-0.0271558
-0.0415364
-0.0760389
-0.222696
0.00196312
-0.00169968
-0.00556854
-0.0104377
-0.0177919
-0.0299022
-0.0679184
-0.242125
0.224248
0.0691672
0.032674
0.0204155
0.0127677
0.00739855
0.00291098
-0.00145739
0.21709
0.0801297
0.0457976
0.0310238
0.0202255
0.0126304
0.00672304
0.00150252
0.198349
0.0799949
0.050048
0.03594
0.0246783
0.0163722
0.00990258
0.00438861
0.17101
0.0764691
0.0504725
0.0373309
0.0266441
0.0185447
0.0121873
0.00692028
0.244592
0.0775676
0.0377541
0.0235161
0.0143095
0.00810819
0.00324692
-0.00127899
0.224938
0.0860327
0.0513011
0.0347763
0.0221191
0.0134742
0.00707457
0.00162943
0.199573
0.0821698
0.0540663
0.0390819
0.0263147
0.01708
0.0101622
0.00444224
0.159467
0.0756678
0.0530394
0.0394829
0.0277791
0.0189785
0.0123012
0.00685936
0.249463
0.079989
0.0381187
0.023182
0.0138645
0.0077749
0.00310853
-0.00118203
0.224518
0.0853099
0.050302
0.0337839
0.0212941
0.0128836
0.00674295
0.00156881
0.196753
0.0796093
0.0520545
0.0375366
0.0251548
0.0162552
0.00964426
0.00421196
0.15282
0.0708345
0.0500324
0.0374919
0.0263871
0.0179803
0.0116284
0.00648745
0.228997
0.0676342
0.0303468
0.018405
0.0111611
0.00633281
0.00248059
-0.00117515
0.214518
0.0762156
0.0419369
0.027743
0.017664
0.010846
0.00573493
0.00132103
0.189618
0.0728756
0.0443266
0.0314173
0.0212458
0.0139362
0.00838912
0.00373981
0.152939
0.0669887
0.0437484
0.0320721
0.0226571
0.0156506
0.0102632
0.0058395
0.00496255
0.00182211
-0.000555553
-0.00181414
-0.000520812
0.00485303
0.0168058
0.0262953
0.00679631
0.00460566
0.00347901
0.00370518
0.00581914
0.0109627
0.0166919
0.0191274
0.00763407
0.00607483
0.0056043
0.00598234
0.00819375
0.012245
0.0175054
0.0248779
0.0075446
0.00636317
0.00609273
0.00673983
0.00863068
0.0120118
0.0171632
0.0275877
0.0067034
0.0057055
0.00537354
0.00580772
0.00744359
0.0103734
0.0150104
0.02262
0.00529928
0.00439673
0.00401623
0.0042447
0.00534948
0.00746925
0.0108578
0.0158786
0.00348825
0.00258133
0.00202097
0.00190939
0.00240223
0.0036277
0.00572041
0.00875737
0.00140769
0.00041167
-0.000415805
-0.000977014
-0.00116338
-0.000872604
-1.65908e-05
0.00143492
0.0047701
0.00159759
-0.000857451
-0.00217267
-0.000308615
0.00780554
0.027291
0.0460932
0.00656488
0.004405
0.00329995
0.00353737
0.00593596
0.0119225
0.0179357
0.0154275
0.00736848
0.00586199
0.00545206
0.00574
0.00801708
0.0121604
0.0172417
0.0268614
0.00726073
0.00612856
0.00589262
0.00651733
0.00837512
0.0117619
0.017281
0.0290828
0.00642764
0.00546775
0.00513304
0.00557445
0.00719007
0.0101338
0.0149638
0.0233011
0.0050571
0.00419197
0.00382708
0.00406663
0.0051584
0.00728493
0.0107707
0.016127
0.00329788
0.00243164
0.0019047
0.00180948
0.00230675
0.00353427
0.00566991
0.00883864
0.0012854
0.000335763
-0.000442714
-0.000967174
-0.00113512
-0.000839298
1.78795e-05
0.00148859
0.00452235
0.00153562
-0.000793683
-0.00212298
-0.000722568
0.00536441
0.0171024
0.00603004
0.0062148
0.00419795
0.00316735
0.003337
0.0053695
0.00996
0.0116256
-0.00376954
0.0069633
0.0055656
0.0051972
0.00541735
0.00744193
0.0108382
0.0138484
0.0183435
0.00684691
0.00579727
0.00558087
0.00615388
0.0078411
0.0108456
0.0156027
0.0257468
0.00604886
0.00515601
0.00484359
0.00524659
0.0067551
0.00948011
0.013947
0.0216943
0.00474678
0.00394006
0.00359981
0.00382586
0.00485159
0.00685168
0.010142
0.0152353
0.00308181
0.00227341
0.00178533
0.0017001
0.00217436
0.00334447
0.00536865
0.00839831
0.00118349
0.000297229
-0.000424455
-0.000907681
-0.00105755
-0.000771207
4.42625e-05
0.00144854
0.00423372
0.00166939
-0.000243635
-0.00115929
0.000403977
0.00763891
0.0233818
0.0469362
0.00575751
0.00401357
0.00318181
0.00348004
0.00566961
0.010971
0.016386
0.017055
0.00642726
0.00520505
0.00490963
0.00521246
0.00721416
0.0108197
0.0152906
0.0245246
0.00631005
0.00537986
0.00519026
0.00575052
0.00734222
0.0102494
0.0150866
0.0252706
0.00557187
0.00477473
0.00451114
0.00487682
0.00625594
0.00875216
0.0128797
0.0199946
0.00436976
0.00364162
0.00333591
0.00353954
0.00446514
0.00626955
0.00923726
0.0138025
0.00283449
0.00210078
0.00165828
0.00158046
0.00200701
0.00305705
0.00487638
0.0075813
0.00108724
0.000282246
-0.000370191
-0.000804289
-0.000935738
-0.00067318
6.4794e-05
0.00132461
0.277085
0.273653
0.256827
0.22152
0.115204
0.126982
0.123667
0.111205
0.069739
0.0838934
0.0848166
0.0768893
0.0494546
0.0601883
0.0622178
0.0572078
0.0340818
0.0411904
0.0433141
0.0408055
0.0222872
0.0268632
0.0287097
0.0278723
0.0124064
0.0153392
0.0169435
0.0171446
0.00332007
0.00515378
0.00662086
0.00757568
0.459168
0.460261
0.439268
0.385878
0.165533
0.182595
0.177582
0.157828
0.0860672
0.103412
0.103703
0.0920839
0.0561931
0.0687654
0.0705634
0.0636988
0.0366977
0.044683
0.0467768
0.0433458
0.0232355
0.0281771
0.0299964
0.0287768
0.0127261
0.0157886
0.0173645
0.017397
0.0034118
0.00526418
0.00670483
0.0076138
0.217748
0.182945
0.16195
0.144458
0.0964029
0.0993632
0.0943507
0.0887143
0.0676728
0.0805977
0.0808245
0.0738486
0.0503356
0.0615259
0.0632256
0.0575514
0.034342
0.0418336
0.0437742
0.0406393
0.0220545
0.0267718
0.028477
0.0272715
0.0121371
0.0150647
0.0165423
0.016516
0.00329091
0.00504247
0.0063912
0.00721667
0.457351
0.468316
0.449066
0.39451
0.15271
0.16936
0.164525
0.145352
0.0748932
0.0897983
0.08983
0.0795736
0.0482236
0.0588955
0.0603307
0.0543026
0.0313498
0.038105
0.0398158
0.0368097
0.0198407
0.024028
0.0255407
0.0244513
0.0108952
0.0134981
0.0148219
0.0148152
0.00297134
0.00454277
0.00575715
0.0065056
0.0756645
0.0563875
0.0460894
0.0352236
0.0262823
0.0191911
0.0134566
0.0088185
0.0639002
0.0507994
0.0409117
0.032
0.0246634
0.0186561
0.0138085
0.00989035
0.0564981
0.0444093
0.0355411
0.0282994
0.0223036
0.0173566
0.0133223
0.0100805
0.0458221
0.0369039
0.0299661
0.0242319
0.0194131
0.015455
0.0121653
0.00950322
0.0348659
0.02915
0.0241849
0.0198718
0.016233
0.0131114
0.0104495
0.00830353
0.0249686
0.0216347
0.0183919
0.0154687
0.0128163
0.0104367
0.00836844
0.00664327
0.0160576
0.0145362
0.0128368
0.011067
0.00930284
0.00761638
0.00605834
0.00466825
0.007999
0.00796005
0.00753674
0.00679571
0.00585256
0.00478109
0.00364937
0.00250977
0.0850302
0.0578353
0.0484363
0.0365631
0.026767
0.0193068
0.0134276
0.00865227
0.0723789
0.0532489
0.0422112
0.0324768
0.0247028
0.0185456
0.01357
0.00961824
0.0613817
0.0459824
0.035996
0.0282529
0.0220707
0.0170409
0.0129602
0.00975236
0.0483424
0.0376014
0.0299522
0.0239568
0.0190909
0.0150247
0.0117428
0.00915519
0.0358965
0.0293045
0.0239703
0.0195615
0.0157896
0.0126476
0.0100491
0.00797033
0.0252744
0.0215541
0.0181604
0.0150754
0.0123781
0.0100315
0.00801879
0.0063501
0.0160932
0.014416
0.0125528
0.0107138
0.00895218
0.00729759
0.00577967
0.00443238
0.00792846
0.00780471
0.00731458
0.00655842
0.0056184
0.00456351
0.00345512
0.00234584
0.0456881
0.0490641
0.0444874
0.0343168
0.0252367
0.0182099
0.012644
0.00817034
0.0509556
0.0461942
0.038803
0.0303732
0.0232084
0.0174227
0.0127696
0.00907032
0.0527238
0.0417304
0.0334234
0.0264381
0.0206885
0.0159864
0.0121817
0.00918507
0.0443625
0.0349558
0.0280104
0.0224314
0.0178577
0.0140883
0.0110247
0.00861137
0.0336781
0.0275082
0.0224789
0.0183001
0.0147909
0.0118545
0.00942716
0.00748701
0.0238775
0.0202899
0.0170261
0.0141327
0.0115999
0.00939919
0.00751505
0.0059545
0.0152284
0.0135647
0.0117938
0.0100515
0.00838907
0.00683277
0.00540713
0.00414326
0.00749662
0.00735558
0.00687643
0.00615416
0.00526257
0.00426547
0.00321968
0.00217618
0.0823061
0.0513108
0.0408146
0.0302572
0.0221813
0.0160931
0.0112871
0.00740597
0.0635257
0.045364
0.0353184
0.0270135
0.0205985
0.0155444
0.0114934
0.00825735
0.052174
0.0386015
0.0300447
0.0235822
0.0184852
0.0143633
0.011026
0.00838629
0.0408162
0.0315435
0.0250766
0.0200776
0.0160396
0.0127247
0.0100188
0.00787823
0.0303162
0.0246637
0.0201508
0.0164447
0.0133491
0.0107503