/*--------------------------------*- C++ -*----------------------------------*\
  =========                 |
  \\      /  F ield         | OpenFOAM: The Open Source CFD Toolbox
   \\    /   O peration     | Website:  https://openfoam.org
    \\  /    A nd           | Version:  7
     \\/     M anipulation  |
\*---------------------------------------------------------------------------*/
FoamFile
{
    version     2.0;
    format      ascii;
    class       surfaceScalarField;
    location    "0.5";
    object      phi;
}
// * * * * * * * * * * * * * * * * * * * * * * * * * * * * * * * * * * * * * //

dimensions      [0 3 -1 0 0 0 0];

internalField   nonuniform List<scalar> 
22560
(
0.8983
0.0102541
-5.10295e-05
0.89796
0.0115649
-4.7619e-05
0.897117
0.0136775
-3.95005e-05
0.8958
0.016563
-1.34642e-05
0.894022
0.0201593
5.52006e-05
0.891865
0.0242833
0.000159982
0.889485
0.0285956
0.00029206
0.032563
0.000429523
0.887127
0.899611
0.00935338
-5.59706e-05
0.900065
0.0111542
-4.28919e-05
0.900003
0.0137394
3.29236e-08
0.899367
0.0170872
0.00011162
0.898085
0.0211329
0.000308806
0.89608
0.0256804
0.000607288
0.89333
0.0303422
0.00100413
0.0344944
0.00145755
0.889941
0.901426
0.00767308
-5.26254e-05
0.902655
0.0099372
-1.19986e-05
0.903349
0.0129349
0.000110334
0.903389
0.0166979
0.000349536
0.902574
0.0211935
0.000753898
0.900645
0.0262429
0.00136685
0.897357
0.0314303
0.00220045
0.036021
0.00318481
0.892645
0.903698
0.00526503
-3.00669e-05
0.905671
0.00788219
8.14945e-05
0.907128
0.0111564
0.000321425
0.907882
0.0151779
0.000766329
0.907587
0.0199755
0.00151245
0.905751
0.0254183
0.00266082
0.901829
0.0310869
0.00426585
0.0361304
0.00623472
0.895485
0.906347
0.00220161
3.45431e-05
0.90899
0.00499313
0.000246151
0.911198
0.00828358
0.000665379
0.912717
0.0122304
0.00142834
0.91304
0.0169318
0.00272037
0.911386
0.0223164
0.00475637
0.906796
0.0279734
0.00770333
0.0329279
0.0114873
0.898511
0.909196
-0.00132952
0.000130894
0.912356
0.00134937
0.000483984
0.915233
0.00425134
0.00115528
0.917512
0.00757334
0.00237764
0.918509
0.0114499
0.00448477
0.917103
0.0158182
0.00790456
0.911798
0.0202226
0.0130552
0.0234411
0.0200101
0.901275
0.911956
-0.00500486
0.000237823
0.915355
-0.00282339
0.000774083
0.918674
-0.0008305
0.0017631
0.92153
0.00113416
0.00358292
0.923041
0.0031522
0.0067871
0.921702
0.0049971
0.0121597
0.915352
0.00594748
0.0206257
0.00387271
0.0327644
0.902155
0.914224
0.000331531
-0.00837144
0.917448
0.00106928
-0.00711672
0.920764
0.00240251
-0.00654973
0.923663
0.00485956
-0.00662442
0.925015
0.00928868
-0.00748819
0.922803
0.0169102
-0.00970132
0.91407
0.0293967
-0.0147159
0.0477635
0.896371
-0.0261918
0.124039
0.0135764
-9.07399e-05
0.123598
0.0153577
-0.000145162
0.12251
0.0182085
-0.000154604
0.120777
0.0221329
-0.00011815
0.118435
0.027043
3.43857e-07
0.115584
0.0327143
0.000200166
0.112422
0.0386995
0.000466547
0.0442697
0.000754932
0.109268
0.125823
0.0123998
-0.000168839
0.126457
0.0148527
-0.000172126
0.12642
0.0183646
-0.000118866
0.125634
0.0229443
8.6336e-05
0.123999
0.0285282
0.000458613
0.121397
0.0348786
0.00104459
0.117769
0.0414926
0.00183967
0.0475108
0.00276792
0.113217
0.128277
0.0102123
-0.000197508
0.129978
0.0132886
-0.000149686
0.130993
0.0173902
6.98592e-05
0.131174
0.0225967
0.000516725
0.130244
0.0289048
0.00130649
0.12783
0.0361299
0.00253038
0.123539
0.0437551
0.00422877
0.0507746
0.00627526
0.117185
0.131377
0.00704297
-0.000173014
0.134114
0.0106219
1.10147e-05
0.136225
0.0151485
0.000452128
0.137473
0.020798
0.00131691
0.137395
0.0276917
0.00280367
0.135283
0.0357573
0.00514542
0.130282
0.0445314
0.00849105
0.0528804
0.0127051
0.121706
0.135014
0.00300715
-7.52685e-05
0.138718
0.00685123
0.000312277
0.141957
0.0114581
0.00111661
0.14443
0.0171269
0.00262673
0.145466
0.0241205
0.00525603
0.14395
0.0325247
0.00950427
0.138366
0.0419892
0.0158293
0.0512852
0.0242656
0.127183
0.138956
-0.00166385
0.000112102
0.143457
0.00205944
0.000775104
0.147786
0.00619707
0.00208759
0.151596
0.0111409
0.00455286
0.154022
0.0172487
0.00893093
0.153479
0.0247109
0.0162611
0.147555
0.033254
0.0277146
0.0414272
0.04403
0.133393
0.14282
-0.00654194
0.000326212
0.147772
-0.00347519
0.00135646
0.15296
-0.00055166
0.00332453
0.157997
0.0026284
0.00705832
0.161841
0.0063177
0.0138741
0.162424
0.0105324
0.0257549
0.156256
0.0146872
0.0453604
0.0163115
0.0757376
0.138399
0.146041
0.000534555
-0.0110335
0.150902
0.00196608
-0.00923337
0.156364
0.0046525
-0.00826296
0.161986
0.00981146
-0.00794602
0.166435
0.0195044
-0.00834713
0.166994
0.0369975
-0.0101133
0.158842
0.0675548
-0.0153188
0.117826
0.135396
-0.0303057
0.0225422
0.0139435
-0.000195229
0.0221266
0.0158235
-0.000324532
0.0210603
0.0188663
-0.000408802
0.0193385
0.0230785
-0.000417412
0.0169899
0.0284207
-0.000325123
0.0141132
0.0347036
-0.000145051
0.0108669
0.0414643
0.000177362
0.0479212
0.00756896
0.000542465
0.024425
0.0127751
-0.000381027
0.0251693
0.0153865
-0.000479433
0.0252497
0.019156
-0.000488934
0.0246132
0.0241549
-0.000353531
0.0231337
0.0303729
-1.4072e-05
0.0206419
0.0376208
0.00061916
0.0170059
0.0454337
0.00150635
0.0528724
0.0122199
0.00260275
0.0270461
0.0105815
-0.000512288
0.0289487
0.0138815
-0.000547316
0.0302379
0.0183581
-0.000421443
0.0307706
0.02418
-4.10476e-05
0.0302351
0.0314363
0.00077848
0.0281862
0.040094
0.00210605
0.0240431
0.0497389
0.00406661
0.0593338
0.0173265
0.00653044
0.0303789
0.00738431
-0.000554286
0.0334673
0.0112735
-0.000469275
0.0360891
0.0163304
-0.000141952
0.0380084
0.0228392
0.000738381
0.038773
0.031157
0.00231843
0.0375369
0.0414922
0.00498333
0.0330968
0.0537036
0.00896641
0.0668298
0.0240574
0.0142486
0.0343389
0.00327607
-0.000484754
0.0386219
0.00754339
-0.000240627
0.0427035
0.012822
0.000543307
0.0464042
0.0196561
0.00210914
0.049087
0.028673
0.00505725
0.0494945
0.0405188
0.0100701
0.0455029
0.0555881
0.0179365
0.0734437
0.0340145
0.02914
0.0387309
-0.00150609
-0.000314101
0.0440741
0.00271003
0.000265244
0.0497579
0.00764032
0.00158545
0.0556709
0.0140145
0.00428145
0.0611471
0.0227481
0.00937962
0.0645483
0.0349651
0.0184135
0.0625329
0.0518667
0.0334515
0.0742341
0.049
0.0567725
0.0431312
-0.00654423
-7.23347e-05
0.0492544
-0.00298264
0.000925913
0.0564854
0.000735801
0.00299809
0.0648984
0.00541213
0.00724766
0.074024
0.0119768
0.0155197
0.082169
0.0216242
0.0309508
0.0849055
0.0361861
0.0583046
0.0576477
0.0716674
0.105562
0.0469068
-0.0112429
0.000236258
0.0532843
-0.00905117
0.00165709
0.0615631
-0.00748956
0.00459908
0.0721282
-0.00603173
0.0106903
0.0847562
-0.00417212
0.0230253
0.098021
-0.00198584
0.0473428
0.10638
0.00174981
0.0936323
0.09562
0.00415781
0.182076
0.885104
0.035492
0.000540495
0.88374
0.0366965
0.000590805
0.8833
0.0358056
0.000561519
0.0329409
0.000457763
0.883923
0.886253
0.0373126
0.00186678
0.882884
0.0379844
0.00208113
0.880559
0.036118
0.00201298
0.0319564
0.00166671
0.879877
0.886884
0.038972
0.00410178
0.881085
0.0391996
0.00458344
0.876574
0.0362102
0.00441897
0.0303499
0.00360474
0.874576
0.887087
0.0392273
0.00814203
0.878197
0.038949
0.00914088
0.870956
0.0346624
0.00878895
0.0267399
0.00704342
0.867522
0.886823
0.0355787
0.0153363
0.874035
0.0344126
0.0173248
0.863325
0.0287118
0.0166602
0.0186248
0.0131611
0.858279
0.885797
0.0236127
0.027444
0.868468
0.0205516
0.0311901
0.853524
0.01365
0.0300056
0.00203087
0.0231288
0.846989
0.883248
-0.00351901
0.0460396
0.861819
-0.010639
0.0526195
0.842835
-0.0182699
0.0509033
-0.0273713
0.0386536
0.833584
0.875957
0.0654876
-0.0485931
0.853761
0.0755028
-0.0639451
0.833257
0.0731473
-0.0709137
0.0541371
0.823599
-0.0718497
0.106538
0.0484351
0.0010028
0.104672
0.0501731
0.00113493
0.104041
0.0489283
0.00110977
0.0448672
0.000934371
0.10485
0.108167
0.0517225
0.00362971
0.103485
0.0528381
0.00409818
0.100204
0.0502277
0.00399484
0.0442151
0.00332778
0.0991947
0.109181
0.0555983
0.00822972
0.100985
0.0563353
0.00928196
0.0945246
0.0521266
0.00898058
0.0434032
0.0073289
0.0916124
0.109812
0.0587134
0.0169207
0.0969394
0.0591541
0.0191944
0.0862984
0.0530829
0.0184737
0.0408799
0.0147392
0.0811259
0.110161
0.0577654
0.0333069
0.0910542
0.0575627
0.0380228
0.0748419
0.0494051
0.0365502
0.0330027
0.0284588
0.0674214
0.109999
0.0454821
0.0631215
0.0830636
0.0430707
0.0726173
0.0592108
0.0333828
0.0698809
0.0144078
0.0535305
0.0474039
0.108381
0.00646186
0.115077
0.0734968
-0.0026036
0.133178
0.0406684
-0.0112131
0.128328
-0.0261268
0.097096
0.0227607
0.101587
0.174197
-0.0684386
0.0620713
0.204279
-0.0918633
0.0232308
0.201758
-0.100984
0.154041
-0.000709677
-0.102091
0.0046402
0.0529016
0.000890734
0.00256419
0.0550659
0.0011274
0.00177322
0.0536886
0.00118861
0.0489425
0.00253644
0.00107321
0.00662595
0.0584241
0.00370119
0.00124719
0.0602123
0.00433054
-0.00266929
0.0572894
0.00431045
0.0499807
-0.00400819
0.00362848
0.00819776
0.0667795
0.0090031
-0.00155638
0.0688532
0.0103952
-0.00949228
0.0640345
0.0101714
0.0527332
-0.0132137
0.00829774
0.00980914
0.0780737
0.0198747
-0.00620783
0.0811257
0.0229389
-0.0200135
0.0740223
0.0222916
0.0566932
-0.0269771
0.0177429
0.0124121
0.0908326
0.0421505
-0.0131572
0.0956727
0.049045
-0.0361582
0.085971
0.0476025
0.0602934
-0.0483731
0.0370735
0.0165265
0.0988877
0.0875399
-0.0229263
0.104811
0.102932
-0.0602121
0.0928125
0.100325
0.0584891
-0.0818631
0.0769858
0.0228732
0.0795766
0.183182
-0.035019
0.0786077
0.217274
-0.0926944
0.0645318
0.214284
0.0286018
-0.131895
0.166184
0.0288279
-0.008158
0.328723
-0.0424562
-0.0316156
0.385786
-0.120226
-0.0405305
0.38459
-0.19951
-0.0491036
0.311032
0.88553
0.0287262
0.000317629
0.887781
0.024072
0.000202776
0.890268
0.0196868
0.000132009
0.892654
0.0159739
9.32993e-05
0.894722
0.0131085
6.91997e-05
0.896354
0.0111304
4.69804e-05
0.897487
0.0100199
2.89401e-05
0.00973329
-8.83534e-06
0.881014
0.0264275
0.00116197
0.883476
0.0208893
0.00071987
0.886588
0.0161617
0.00041363
0.889793
0.012544
0.000224654
0.892734
0.0100544
0.000113327
0.895224
0.00859496
4.52962e-05
0.897201
0.00804384
-3.02519e-07
0.00830868
-2.94994e-05
0.87562
0.0229796
0.00240371
0.878797
0.0163042
0.00140799
0.88296
0.0112458
0.000752676
0.88727
0.00786826
0.00036611
0.89124
0.00593151
0.00015315
0.894646
0.00514762
4.09205e-05
0.897453
0.00525977
-2.28827e-05
0.00612164
-5.30323e-05
0.869078
0.0170555
0.0043682
0.87372
0.00929269
0.00237002
0.8795
0.0042957
0.0011695
0.885245
0.0016129
0.000510677
0.890388
0.000611871
0.000177151
0.894718
0.000789807
2.72864e-05
0.898302
0.00171734
-4.14836e-05
0.00322393
-5.96204e-05
0.861385
0.00671618
0.00723332
0.868577
-0.00142941
0.00353029
0.876639
-0.00532941
0.00156292
0.88411
-0.00644202
0.000583933
0.890416
-0.00584939
0.000155174
0.895582
-0.00435708
-1.87709e-05
0.899796
-0.00242797
-6.84144e-05
-0.000241935
-5.66475e-05
0.853128
-0.0105946
0.0111717
0.864116
-0.0170775
0.00465985
0.875167
-0.0179962
0.0016163
0.884478
-0.0160997
0.000347116
0.891793
-0.0130855
-7.93288e-05
0.897469
-0.00986119
-0.000172343
0.901991
-0.00680587
-0.000143549
-0.00399169
-5.49206e-05
0.845928
-0.0377988
0.0148601
0.862449
-0.0378091
0.00421004
0.87661
-0.0326067
0.000449997
0.887275
-0.026118
-0.000646401
0.89494
-0.02003
-0.000721061
0.900524
-0.014909
-0.000535821
0.904844
-0.010815
-0.000311343
-0.00758963
-7.67107e-05
0.845026
0.010718
-0.0699441
0.866962
-0.00189481
-0.0578501
0.882841
-0.00381589
-0.0446702
0.893334
-0.00315393
-0.0334573
0.900122
-0.00208237
-0.0247353
0.904704
-0.00121384
-0.0182772
0.908157
-0.000607713
-0.0136604
-0.000150203
-0.0104706
0.107004
0.038902
0.000681275
0.110026
0.0324011
0.000467886
0.113354
0.0263541
0.000330947
0.116539
0.0212863
0.000249197
0.119291
0.0174063
0.000191711
0.121456
0.0147447
0.000134735
0.122978
0.0132546
6.6934e-05
0.012879
-1.57322e-05
0.100745
0.0361756
0.00233819
0.104114
0.0282868
0.0014646
0.10834
0.0216864
0.00085521
0.112666
0.0167108
0.000474777
0.116615
0.013326
0.000244854
0.119946
0.0113616
9.73285e-05
0.122583
0.0106291
-1.2399e-05
0.0109984
-9.93887e-05
0.0931258
0.0321822
0.00488376
0.0975949
0.0223734
0.00285231
0.103345
0.0151708
0.00151789
0.109224
0.0104655
0.000732273
0.114593
0.00781374
0.000296854
0.119173
0.00676279
6.00686e-05
0.122934
0.00692742
-8.26555e-05
0.00810296
-0.000167665
0.0835954
0.0249457
0.00913529
0.0903504
0.0130996
0.00488877
0.0984916
0.00582709
0.00237205
0.10642
0.00203431
0.00101293
0.113428
0.000655628
0.000327263
0.119272
0.000934045
1.28777e-05
0.124087
0.00221075
-0.000140045
0.00426638
-0.000200909
0.0719783
0.011748
0.015874
0.0827754
-0.00164539
0.00747827
0.0943627
-0.00740614
0.00320881
0.104812
-0.00898879
0.00115753
0.113454
-0.00810099
0.000269822
0.120444
-0.00599385
-8.11956e-05
0.126121
-0.003326
-0.000207935
-0.000333477
-0.000204104
0.058572
-0.0128065
0.0245581
0.0757543
-0.0240469
0.00987908
0.0920763
-0.0254103
0.00329847
0.105281
-0.0224913
0.000645373
0.115356
-0.0180441
-0.000211497
0.12304
-0.0134551
-0.000395034
0.129126
-0.0091956
-0.000360185
-0.00532288
-0.00020594
0.0453868
-0.0549034
0.034331
0.0724958
-0.0558346
0.00888871
0.09401
-0.0471411
0.000666562
0.109299
-0.0368988
-0.0015275
0.119803
-0.0277761
-0.00149366
0.127297
-0.0203585
-0.00112601
0.133065
-0.0145873
-0.000687564
-0.0101159
-0.00024933
0.0418832
0.0250716
-0.11185
0.0792641
-0.00611256
-0.0889978
0.103695
-0.00932388
-0.066064
0.118389
-0.00693827
-0.0478088
0.12735
-0.00439938
-0.0344197
0.133231
-0.00250033
-0.0249533
0.137693
-0.00125893
-0.0183974
-0.00037464
-0.0139514
0.00479046
0.0419601
0.000855032
0.00797866
0.0345193
0.000663961
0.0114673
0.0277623
0.000537121
0.0147811
0.0222096
0.000451406
0.017624
0.0180215
0.00036858
0.0198492
0.0151798
0.000264189
0.0214098
0.0135978
0.000130239
0.0131998
-3.10551e-05
-0.0023257
0.0400603
0.00255556
0.00139165
0.0306496
0.0016169
0.00597869
0.02306
0.000970479
0.0105979
0.0175001
0.000565116
0.0147637
0.0137965
0.000303996
0.018247
0.0116809
0.000112967
0.0209983
0.0108954
-6.13101e-05
0.0112824
-0.000228075
-0.0113448
0.0376489
0.00542624
-0.00609479
0.0251477
0.00310421
0.000388513
0.016476
0.00161863
0.00682035
0.011041
0.000759536
0.0125765
0.00806378
0.000273429
0.0174138
0.00691332
-9.6825e-06
0.0213635
0.00708114
-0.000218116
0.00832837
-0.0003879
-0.0234065
0.0325906
0.010623
-0.0148358
0.0159575
0.00550819
-0.00525458
0.00669022
0.00257664
0.00364243
0.00211481
0.00104205
0.0112757
0.000484837
0.000272907
0.017501
0.000816949
-0.000116016
0.0225822
0.00219299
-0.000333129
0.00439488
-0.000485622
-0.0396665
0.0203423
0.0194157
-0.024593
-0.000481384
0.00884367
-0.0103275
-0.00799432
0.00362784
0.00172212
-0.010013
0.0012357
0.0112365
-0.00895657
0.000196878
0.0187371
-0.00655376
-0.000211099
0.0247556
-0.00360921
-0.000424189
-0.00035522
-0.000519613
-0.0598948
-0.00890802
0.03184
-0.0346261
-0.027726
0.011855
-0.0134879
-0.0296868
0.00385274
0.00214425
-0.0257364
0.00073672
0.0133559
-0.0200449
-0.00033478
0.0215862
-0.0146742
-0.000504921
0.0280231
-0.00983816
-0.000568149
-0.00554476
-0.000515776
-0.0847546
-0.0681892
0.0464714
-0.0406091
-0.0736605
0.0106778
-0.0113738
-0.0590002
0.000744568
0.00663584
-0.0436079
-0.00166568
0.0185293
-0.0316048
-0.0018272
0.0264208
-0.0223898
-0.00130195
0.0324008
-0.0156242
-0.000881537
-0.0105628
-0.00052498
-0.0947496
-0.178226
0.0303476
-0.0302037
-0.13163
-0.0126892
0.00235908
-0.0879605
-0.0129264
0.0192013
-0.0586816
-0.00870669
0.0280011
-0.0396676
-0.00513653
0.0334317
-0.0275327
-0.00278804
0.0376765
-0.019688
-0.00143991
-0.0145758
-0.000594914
0.915544
-0.0109245
0.000384991
0.918064
-0.0109273
0.00129109
0.920716
-0.0120911
0.00288863
0.922767
-0.0145227
0.0058481
0.922576
-0.0185022
0.0112049
0.917056
-0.0245593
0.0203779
0.90118
-0.0335864
0.0347458
-0.0471784
0.0494137
0.872753
0.915559
-0.0122542
0.000387492
0.916885
-0.0136193
0.00136663
0.918232
-0.0164912
0.00305282
0.91868
-0.0211399
0.00616959
0.916302
-0.027936
0.0118113
0.907575
-0.0372498
0.0214179
0.88683
-0.0491614
0.0363198
-0.0627855
0.0499909
0.852446
0.914149
-0.0121191
0.000336005
0.91392
-0.0146448
0.00125404
0.913444
-0.0188042
0.00278944
0.911709
-0.0250081
0.00560318
0.906816
-0.0337244
0.0106814
0.895544
-0.0452727
0.0192949
0.872998
-0.0592775
0.0326626
-0.0730923
0.0448048
0.8385
0.911519
0.000238396
-0.0104918
0.909595
0.000961817
-0.0136827
0.907001
0.00209753
-0.0183076
0.902683
0.0040949
-0.0247854
0.89494
0.00756374
-0.0335447
0.881299
0.0131903
-0.0448224
0.858793
0.0213442
-0.0581151
0.027393
0.828712
-0.0704042
0.147964
-0.0144609
0.000676668
0.151983
-0.014414
0.00245334
0.156779
-0.0158958
0.00572464
0.161612
-0.019012
0.0120816
0.16432
-0.0241053
0.0242546
0.159805
-0.0319053
0.0466849
0.13742
-0.0435071
0.0853193
-0.0597081
0.12783
0.0884068
0.14805
-0.0162735
0.000726238
0.150492
-0.0181463
0.00265696
0.153607
-0.0221001
0.0061427
0.156382
-0.028557
0.0129389
0.156157
-0.038122
0.0260528
0.146863
-0.0514502
0.050257
0.116397
-0.0685715
0.0918503
-0.0854954
0.136993
0.0551821
0.146102
-0.0161389
0.000671266
0.146385
-0.0196584
0.00248349
0.146919
-0.0255196
0.00567457
0.146533
-0.034445
0.0118779
0.14255
-0.0473603
0.0239027
0.129278
-0.0650985
0.0462152
0.0959856
-0.0873967
0.0847799
-0.107234
0.130303
0.032226
0.142397
0.000521382
-0.0140025
0.140219
0.00194288
-0.0184618
0.137533
0.00430563
-0.0250413
0.132983
0.00874514
-0.0345451
0.124056
0.017121
-0.0479906
0.106035
0.0324367
-0.066324
0.0704321
0.0589431
-0.089393
0.0884118
0.0147554
-0.112576
0.0492806
-0.0148717
0.000486604
0.0550506
-0.0146793
0.00231134
0.0633061
-0.0160148
0.00599439
0.0744263
-0.0188415
0.0137711
0.08774
-0.0232765
0.0300453
0.0984362
-0.0297364
0.0637392
0.0853271
-0.03775
0.137928
-0.0364738
-0.0121467
0.265935
0.0495423
-0.0168457
0.000655713
0.05375
-0.018901
0.00267093
0.0605057
-0.0232871
0.0066594
0.0700183
-0.0305774
0.0151622
0.08114
-0.0416297
0.0332843
0.0873485
-0.0574044
0.0717165
0.0602843
-0.077057
0.158221
-0.0789097
-0.0649321
0.304645
0.0473968
-0.016798
0.00072028
0.0491803
-0.0208122
0.00261117
0.0529456
-0.0276687
0.00629083
0.0586622
-0.0385933
0.0141771
0.0651306
-0.0554334
0.031238
0.0659093
-0.0803059
0.0683381
0.0312701
-0.112917
0.155279
-0.131678
-0.0919147
0.306256
0.0431293
-0.0146253
0.000669066
0.0418858
-0.0197484
0.00212255
0.0413035
-0.0276092
0.00482849
0.0407055
-0.0397647
0.0105146
0.0385129
-0.0588013
0.0226816
0.029232
-0.0880641
0.0494757
-0.00925205
-0.131702
0.116213
-0.121053
-0.178972
0.247506
0.859348
-0.0667761
0.0315886
0.846287
-0.0801317
0.0292476
0.833069
-0.0843323
0.0266362
-0.0806742
0.0136033
0.82829
0.845513
-0.0758045
0.0159614
0.841699
-0.0841656
0.00784777
0.836833
-0.0841683
0.00470267
-0.0758091
-0.00587663
0.837844
0.837076
-0.0808989
0.0065176
0.841618
-0.0845496
-0.00415813
0.845121
-0.0803459
-0.00732507
-0.0669854
-0.0153751
0.851672
0.833075
-0.0128729
-0.0723898
0.845975
-0.0259827
-0.0714669
0.85878
-0.0286643
-0.0644866
-0.0310103
0.871896
-0.0490907
0.072378
-0.0818989
0.0610777
0.0532779
-0.100417
0.0569015
0.0302254
-0.106168
0.0548737
-0.102305
0.0296945
0.0143481
0.0507199
-0.0900041
0.0285289
0.0469759
-0.100379
0.011554
0.0375987
-0.100339
0.00825058
-0.089886
-0.0123635
0.0316668
0.0377829
-0.102505
0.0134614
0.0469058
-0.106205
-0.00745519
0.0503938
-0.10037
-0.0107827
-0.0818319
-0.0274919
0.0544566
0.03022
-0.0282691
-0.102573
0.0529676
-0.0536696
-0.101266
0.0718119
-0.0557821
-0.092096
-0.0598476
0.087531
-0.0687137
-0.0154507
0.0562236
-0.0378598
0.047695
-0.0662561
0.0427396
0.0346169
-0.120282
-0.0401379
0.0599582
-0.0425717
0.0616829
-0.053251
0.0616694
0.0597844
-0.0907819
-0.0535556
0.0350606
-0.0425954
0.0432675
-0.0399073
0.0481986
0.0563681
-0.063983
-0.0664111
-0.0478499
-0.0379618
-0.0388513
-0.0155482
-0.0299972
-0.0118489
-0.00717877
0.858034
-0.0728981
-0.0267894
0.880683
-0.0591698
-0.02133
0.894523
-0.0452137
-0.0132965
0.902417
-0.0336936
-0.00765783
0.906838
-0.0249934
-0.00416249
0.9095
-0.0187965
-0.00214324
0.911472
-0.0146381
-0.000993904
-0.0121097
-0.000265163
0.872009
-0.0628058
-0.0442571
0.894775
-0.0491874
-0.0327488
0.906314
-0.0372759
-0.0194767
0.9114
-0.0279593
-0.0108201
0.913262
-0.0211592
-0.00569572
0.91382
-0.0165057
-0.0028487
0.914103
-0.0136281
-0.00129333
-0.0122573
-0.000366608
0.885767
-0.0473849
-0.0495153
0.906762
-0.0337269
-0.036456
0.915778
-0.0246601
-0.0216314
0.918362
-0.0185743
-0.0119689
0.918049
-0.0145732
-0.00627318
0.916787
-0.0121258
-0.00311815
0.915519
-0.0109507
-0.00140888
-0.0109396
-0.000418937
0.900156
-0.049014
-0.0266313
0.916292
-0.0348705
-0.0149923
0.922088
-0.0205736
-0.00988235
0.922475
-0.0113527
-0.00760831
0.920552
-0.00594675
-0.00670343
0.91798
-0.00295149
-0.00660207
0.915513
-0.00133157
-0.00715234
-0.000414164
-0.00839728
0.0694544
-0.10689
-0.0868559
0.105374
-0.0871641
-0.059083
0.123663
-0.0649322
-0.0327174
0.132746
-0.0472386
-0.0173115
0.137393
-0.03436
-0.00886912
0.140143
-0.0254609
-0.00438594
0.142368
-0.0196176
-0.0019983
-0.0161096
-0.000567428
0.0946874
-0.0853797
-0.128788
0.128419
-0.0684729
-0.085172
0.142038
-0.0513758
-0.0466515
0.146224
-0.0380689
-0.0241759
0.146736
-0.0285215
-0.0120468
0.146284
-0.022078
-0.00577869
0.146059
-0.0181344
-0.00255152
-0.0162699
-0.000724002
0.115006
-0.0597932
-0.135651
0.145931
-0.0435275
-0.0923265
0.155594
-0.0319231
-0.0507471
0.156039
-0.0241249
-0.0263585
0.153402
-0.0190306
-0.0131267
0.150377
-0.0159138
-0.00625734
0.147997
-0.0144331
-0.0027302
-0.0144837
-0.000780493
0.136057
-0.126561
-0.0307719
0.158888
-0.0856807
-0.0155485
0.163763
-0.0471109
-0.0102613
0.161273
-0.0245337
-0.00845372
0.156577
-0.0122582
-0.00802297
0.151867
-0.0058344
-0.008321
0.147907
-0.00252346
-0.00928171
-0.000727036
-0.0110797
-0.010287
-0.13174
-0.243337
0.0287968
-0.112896
-0.1169
0.0383251
-0.0802492
-0.049957
0.0406081
-0.0553614
-0.0229147
0.0412483
-0.0385296
-0.0106472
0.0418567
-0.0276182
-0.00490892
0.0431211
-0.0207741
-0.00217664
-0.0167699
-0.000713879
0.0303333
-0.0790285
-0.302614
0.0655225
-0.0769667
-0.15629
0.0649429
-0.0573428
-0.0689784
0.0585487
-0.0415843
-0.0315588
0.0528735
-0.0305444
-0.0143568
0.0491372
-0.0232651
-0.00639542
0.047378
-0.0188885
-0.00267788
-0.0168418
-0.000771844
0.0592978
-0.0365632
-0.301397
0.0869467
-0.037586
-0.159356
0.0809361
-0.0296674
-0.0724119
0.0698889
-0.0232582
-0.0336373
0.0604202
-0.0188419
-0.0153605
0.0536961
-0.016024
-0.00677439
0.0495144
-0.0146942
-0.00274287
-0.0148925
-0.00070888
0.084214
0.00351246
-0.262699
0.0979381
0.00178372
-0.138775
0.0874885
-0.00200719
-0.0643215
0.0742753
-0.00422059
-0.0303581
0.0632101
-0.0060809
-0.0139541
0.0549903
-0.00753503
-0.00610354
0.0492467
-0.00909402
-0.00238004
-0.0112868
-0.000535742
0.908201
-0.00762044
0.000128999
0.904785
-0.0108507
0.000584635
0.900252
-0.0149597
0.00118441
0.893533
-0.0201104
0.00204484
0.883125
-0.0262519
0.00311439
0.867329
-0.0328322
0.00380593
0.845381
-0.0381886
0.00202137
-0.0384325
-0.0102101
0.82362
0.904881
-0.00402735
6.11454e-05
0.900583
-0.00684911
0.000295888
0.895026
-0.00992112
0.000518452
0.88739
-0.0131752
0.000701271
0.876748
-0.0162383
0.000627892
0.862579
-0.0182095
-0.000453788
0.845964
-0.0174003
-0.00417254
-0.0110687
-0.0147717
0.833372
0.902018
-0.000277232
4.41747e-05
0.897507
-0.00247174
0.000133848
0.89184
-0.00441604
0.000162638
0.884528
-0.00593276
6.87284e-05
0.875208
-0.00655991
-0.00035801
0.86412
-0.00549536
-0.00162594
0.85304
-0.00165162
-0.00466898
0.00642031
-0.0112127
0.846764
0.899815
0.00319299
4.91313e-05
0.895602
0.00167824
6.26202e-05
0.890435
0.000738373
1.30337e-05
0.884121
0.00054176
-0.000161212
0.87663
0.00152239
-0.000590815
0.868528
0.00417947
-0.0015733
0.861279
0.00914976
-0.00355221
0.0168871
-0.00728519
0.858098
0.898314
0.00609791
5.45482e-05
0.894726
0.00522621
3.97034e-05
0.890389
0.00510457
-2.95975e-05
0.885233
0.00587719
-0.000179124
0.879468
0.00780203
-0.000514624
0.873658
0.0111673
-0.00117778
0.86898
0.0162157
-0.0023884
0.0228866
-0.0044086
0.86739
0.897459
0.0082964
4.97517e-05
0.894646
0.00801807
2.17549e-05
0.89123
0.00856208
-4.22976e-05
0.887247
0.0100148
-0.000154522
0.882921
0.0124977
-0.000368879
0.878737
0.0161096
-0.000759107
0.87554
0.0208348
-0.0014218
0.0263758
-0.00243131
0.874482
0.897202
0.00971504
4.00323e-05
0.895216
0.0100028
3.28596e-07
0.892717
0.0111087
-4.75619e-05
0.889765
0.0130827
-0.000115191
0.886547
0.0159435
-0.000227828
0.883423
0.0196533
-0.000419741
0.88095
0.0240384
-0.000731268
0.0286963
-0.0011816
0.879812
0.897487
-4.66961e-07
0.896334
-2.03671e-05
0.894697
-5.02222e-05
0.892621
-7.33528e-05
0.890226
-9.86361e-05
0.887734
-0.000140129
0.88548
-0.000215387
-0.000335684
0.883878
0.137705
-0.0101817
0.000338243
0.133274
-0.0146663
0.00121941
0.127432
-0.0204635
0.00244915
0.118526
-0.027925
0.00433057
0.103916
-0.0371193
0.00685346
0.07961
-0.0474815
0.00926913
0.0423276
-0.0563927
0.00630348
-0.0558887
-0.0239711
-0.000598985
0.133061
-0.00539348
0.000222607
0.127305
-0.00927671
0.000661442
0.119823
-0.0135578
0.0010954
0.109326
-0.0181824
0.00145552
0.0940361
-0.0226834
0.00148176
0.0724948
-0.0256829
-0.000711088
0.0452796
-0.0244401
-0.00890992
-0.0133809
-0.0343555
0.0223555
0.129109
-0.000399559
0.000187597
0.123021
-0.00339897
0.000344021
0.115329
-0.00608062
0.000377552
0.105236
-0.00821047
0.000190105
0.0919963
-0.00912638
-0.000675322
0.0756127
-0.00758013
-0.00334509
0.0583165
-0.00184411
-0.00996875
0.0114918
-0.024789
0.04702
0.126097
0.00421045
0.000192468
0.12041
0.00215175
0.000199007
0.113401
0.000868434
7.29725e-05
0.104735
0.000574334
-0.000279994
0.0942456
0.00194847
-0.00117603
0.0826025
0.00573316
-0.00324347
0.071749
0.0130051
-0.00754782
0.0248556
-0.0160412
0.0671411
0.124062
0.00806001
0.000194752
0.119232
0.00688432
0.00013685
0.113369
0.00671769
-1.60154e-05
0.106332
0.00776588
-0.000333882
0.0983716
0.0104185
-0.00102404
0.0901948
0.0151281
-0.00239589
0.0834097
0.0223414
-0.00493971
0.0321678
-0.00924281
0.0809317
0.122911
0.0109687
0.000166617
0.119132
0.0106008
8.41151e-05
0.114532
0.0113358
-6.01019e-05
0.109139
0.0133027
-0.000299112
0.103236
0.0166918
-0.000738772
0.0974639
0.0216747
-0.00153362
0.092983
0.0282865
-0.00288595
0.0361897
-0.00494897
0.0914788
0.122565
0.0128701
0.000103405
0.119907
0.013241
1.77137e-05
0.116556
0.0147366
-9.65489e-05
0.112587
0.0174028
-0.000246426
0.108243
0.0212877
-0.000480168
0.104004
0.0263614
-0.000867488
0.100633
0.0324154
-0.00148847
0.0389231
-0.00237984
0.0990974
0.122955
8.0282e-06
0.12142
-6.32218e-05
0.119236
-0.000135045
0.116466
-0.000195869
0.113267
-0.000257451
0.10993
-0.000345362
0.106909
-0.000491244
-0.000716181
0.104771
0.0376731
-0.010628
0.000559858
0.0334432
-0.0157009
0.0014019
0.0280338
-0.0224884
0.00273764
0.0192754
-0.0317405
0.00506478
0.00252826
-0.0438087
0.00860802
-0.0297116
-0.0593404
0.0127853
-0.0935695
-0.0743654
0.0128244
-0.0699259
-0.198551
-0.0280351
0.0323845
-0.005616
0.000499749
0.0264069
-0.00991868
0.00085689
0.0185162
-0.0147738
0.00127159
0.00662356
-0.0201768
0.00178443
-0.0113817
-0.0259217
0.00159994
-0.0406109
-0.0299652
-0.000856984
-0.0848265
-0.0281861
-0.0108736
-0.00956866
-0.132456
-0.0470828
0.0279967
-0.000423079
0.000499249
0.0215507
-0.00368241
0.000553739
0.0133056
-0.00663864
0.000487508
0.00206842
-0.00905971
0.000310145
-0.0136047
-0.0101413
-0.000782578
-0.0348134
-0.00815469
-0.00394687
-0.0602219
-0.000683163
-0.0120633
0.0201441
-0.0823625
-0.0323612
0.0247242
0.0043366
0.000510645
0.0186893
0.00213367
0.000417834
0.0111669
0.00075291
0.000203742
0.0016207
0.000416061
-0.000209536
-0.0104726
0.00203906
-0.00126309
-0.0247969
0.00661484
-0.00368876
-0.0399465
0.0158943
-0.00897564
0.0325777
-0.0487036
-0.0197177
0.0225506
0.00828288
0.000482995
0.0174507
0.00703721
0.00033314
0.0112007
0.0068703
0.000116634
0.00353764
0.00802249
-0.000277267
-0.00539549
0.0110043
-0.00105619
-0.0150155
0.0164515
-0.00261257
-0.0236203
0.0251481
-0.00558861
0.0376962
-0.0271909
-0.0107907
0.0213343
0.0112516
0.000390254
0.0173651
0.0108679
0.00022257
0.012504
0.0116574
1.38918e-05
0.00672197
0.0137782
-0.00027272
0.000263278
0.0174896
-0.000765318
-0.00624336
0.0230626
-0.00163806
-0.0115048
0.0306729
-0.00314934
0.0401142
-0.0133564
-0.00551535
0.0209731
0.0131861
0.000233401
0.0182026
0.013588
6.81842e-05
0.0146967
0.0151744
-0.000107615
0.0105082
0.0180217
-0.000301459
0.00586851
0.0222168
-0.000567606
0.00126714
0.0277784
-0.000981916
-0.00245164
0.0345467
-0.00164343
0.0420009
-0.00411331
-0.00260493
0.0213883
2.90752e-05
0.0198088
-0.000124274
0.0175623
-0.00026008
0.0146987
-0.000367908
0.0113671
-0.000455762
0.00786742
-0.000548927
0.00468043
-0.000686444
0.00244589
-0.00089157
0.832866
-0.0282123
-0.053424
0.853088
-0.0192095
-0.0724786
0.875154
-0.0115686
-0.074984
-0.00430444
-0.0651002
0.895468
0.842401
0.00145031
-0.0386915
0.861274
0.0130116
-0.0510945
0.88268
0.0199136
-0.0528886
0.023025
-0.0462999
0.901651
0.853205
0.0182961
-0.0232869
0.86812
0.0283702
-0.030274
0.88548
0.0340699
-0.0315162
0.0352483
-0.0277554
0.901012
0.863109
0.0265682
-0.0132832
0.873828
0.0344955
-0.0168446
0.886657
0.0387851
-0.0175439
0.0390647
-0.0155489
0.898389
0.870816
0.0302647
-0.00712248
0.878077
0.036136
-0.00890238
0.887005
0.0391312
-0.00927375
0.0389036
-0.00827215
0.895438
0.876485
0.0319146
-0.00365286
0.881019
0.0360877
-0.00448538
0.886849
0.0379615
-0.00466022
0.037292
-0.00417743
0.892638
0.880504
0.0329192
-0.00169726
0.882851
0.0357938
-0.00205281
0.886245
0.0366928
-0.00212584
0.0354929
-0.00191072
0.889955
0.883269
-0.000482134
0.88373
-0.000590314
0.885116
-0.000620973
-0.000568614
0.887156
0.0228243
-0.0274057
-0.152015
0.0612761
-0.0124914
-0.199705
0.100618
-0.00398925
-0.202433
0.00521565
-0.172651
0.13424
0.0401087
0.0137119
-0.0975623
0.072934
0.0326481
-0.129059
0.107857
0.042289
-0.134089
0.0447164
-0.115881
0.137937
0.058813
0.0327475
-0.0541155
0.0827402
0.0491263
-0.0706794
0.109779
0.057244
-0.0735096
0.0574063
-0.0639206
0.133254
0.0745964
0.0408141
-0.0288051
0.0908899
0.0530108
-0.0370226
0.11009
0.0590492
-0.0385489
0.0585608
-0.0337896
0.127176
0.0861484
0.0434105
-0.0149355