/*--------------------------------*- C++ -*----------------------------------*\
  =========                 |
  \\      /  F ield         | OpenFOAM: The Open Source CFD Toolbox
   \\    /   O peration     | Website:  https://openfoam.org
    \\  /    A nd           | Version:  7
     \\/     M anipulation  |
\*---------------------------------------------------------------------------*/
FoamFile
{
    version     2.0;
    format      ascii;
    class       volVectorField;
    location    "0.5";
    object      U;
}
// * * * * * * * * * * * * * * * * * * * * * * * * * * * * * * * * * * * * * //

dimensions      [0 1 -1 0 0 0 0];

internalField   nonuniform List<vector> 
7936
(
(0.143726 0.00166588 -7.99791e-06)
(0.14371 0.00183575 -7.17655e-06)
(0.143614 0.00213453 -2.97577e-06)
(0.143444 0.00256019 1.89091e-07)
(0.143195 0.00310302 6.03557e-06)
(0.142877 0.00373776 1.47132e-05)
(0.14251 0.00441505 2.55363e-05)
(0.142125 0.00505544 3.66329e-05)
(0.143872 0.00158372 -7.39559e-06)
(0.143982 0.0018315 -3.68731e-06)
(0.144017 0.00220991 1.28325e-06)
(0.143962 0.0027094 1.09859e-05)
(0.14381 0.00332007 2.75058e-05)
(0.143548 0.00401125 5.21846e-05)
(0.143167 0.00472457 8.46957e-05)
(0.142671 0.00536803 0.000121558)
(0.1441 0.00137593 -3.7139e-06)
(0.144336 0.00170444 4.50846e-07)
(0.144492 0.00215282 1.10435e-05)
(0.144555 0.00272364 3.11574e-05)
(0.144497 0.0034083 6.46777e-05)
(0.144283 0.00417609 0.000114983)
(0.143869 0.00496234 0.000182859)
(0.143225 0.00565877 0.0002624)
(0.144407 0.00105037 -7.18076e-07)
(0.144759 0.00144323 8.73692e-06)
(0.145036 0.00194879 2.89152e-05)
(0.145219 0.0025765 6.58857e-05)
(0.145264 0.00332543 0.000127187)
(0.145105 0.00417027 0.000220685)
(0.144653 0.0050438 0.000350189)
(0.143831 0.00581927 0.00050742)
(0.144782 0.000609435 4.78023e-06)
(0.145235 0.00104684 2.25795e-05)
(0.145626 0.00157889 5.75245e-05)
(0.145932 0.00222552 0.000120346)
(0.146093 0.00299719 0.000225636)
(0.146005 0.00387799 0.000389848)
(0.145523 0.00480192 0.000624673)
(0.144497 0.00562372 0.000921435)
(0.145206 7.63101e-05 1.2714e-05)
(0.145729 0.000521247 4.22704e-05)
(0.146216 0.00102636 9.77609e-05)
(0.146639 0.00162145 0.000197648)
(0.14692 0.00232665 0.000367862)
(0.146914 0.00313359 0.000640486)
(0.146407 0.00397697 0.00104387)
(0.14515 0.00468913 0.00157423)
(0.14564 -0.000508445 2.13474e-05)
(0.146186 -0.000110829 6.59754e-05)
(0.146728 0.000292256 0.000147204)
(0.147235 0.000732049 0.00029476)
(0.147609 0.00122559 0.000550958)
(0.147662 0.00175684 0.000972784)
(0.14709 0.00224151 0.00161977)
(0.14553 0.00245569 0.00250546)
(0.146031 -0.00108181 2.87238e-05)
(0.14653 -0.00079893 8.98027e-05)
(0.14706 -0.00058488 0.000198624)
(0.147574 -0.000421253 0.00039623)
(0.147948 -0.000315392 0.000745918)
(0.147937 -0.000329222 0.00133168)
(0.147115 -0.000645162 0.00225056)
(0.144944 -0.00172822 0.00352734)
(0.0198457 0.00220941 -1.27964e-05)
(0.0198241 0.00243869 -1.62439e-05)
(0.0197042 0.0028419 -1.31047e-05)
(0.0194782 0.00341826 -5.51661e-06)
(0.0191504 0.00415628 1.08259e-05)
(0.0187314 0.00502418 3.60894e-05)
(0.0182442 0.0059569 6.91367e-05)
(0.0177301 0.00684634 0.000104069)
(0.0200441 0.00209983 -1.8473e-05)
(0.0201971 0.00244058 -1.46836e-05)
(0.0202468 0.00295103 -2.67136e-06)
(0.0201832 0.00363128 2.42393e-05)
(0.0199924 0.00446834 7.28014e-05)
(0.0196557 0.00542396 0.000147409)
(0.0191568 0.00642134 0.000247116)
(0.0184961 0.00733429 0.000361814)
(0.0203531 0.00183279 -1.69128e-05)
(0.0206755 0.00227679 -5.80539e-06)
(0.0208952 0.00288833 2.36402e-05)
(0.0209961 0.00367348 8.25732e-05)
(0.0209442 0.00462526 0.000183896)
(0.0206862 0.00570836 0.000338317)
(0.0201571 0.0068399 0.000549624)
(0.019303 0.00787097 0.000800556)
(0.0207697 0.00140288 -1.02481e-05)
(0.0212529 0.00193918 1.63838e-05)
(0.021644 0.00263532 7.51102e-05)
(0.0219212 0.00351065 0.000186698)
(0.022029 0.00457349 0.00037503)
(0.0218731 0.00580166 0.000667023)
(0.0213237 0.00711484 0.00107772)
(0.0202437 0.00834098 0.00158583)
(0.0212822 0.000822357 5.16616e-06)
(0.0219083 0.0014236 5.62093e-05)
(0.0224675 0.00216488 0.000160962)
(0.0229358 0.00308422 0.000353343)
(0.0232378 0.00421237 0.000682195)
(0.023232 0.00554997 0.00120447)
(0.0227034 0.00703081 0.00196732)
(0.0213866 0.00846501 0.00295988)
(0.0218644 0.000117875 2.78195e-05)
(0.022596 0.000734724 0.000115354)
(0.0233058 0.00144994 0.000284048)
(0.0239707 0.00232096 0.000594253)
(0.0244985 0.00340015 0.00113453)
(0.0246981 0.00471363 0.00202073)
(0.0242492 0.0062183 0.00337117)
(0.0226988 0.00771581 0.00522604)
(0.0224668 -0.000658331 5.41897e-05)
(0.023241 -0.000100913 0.000188204)
(0.0240551 0.00048454 0.000438141)
(0.0248886 0.0011608 0.000902468)
(0.0256354 0.00198565 0.001731)
(0.0260583 0.00298607 0.00313852)
(0.0257163 0.00411751 0.00538205)
(0.0238881 0.00514464 0.00867032)
(0.0230126 -0.00142324 7.84603e-05)
(0.0237395 -0.00102042 0.000263039)
(0.0245689 -0.0006912 0.000601033)
(0.0254747 -0.000390594 0.00123391)
(0.0263287 -9.71004e-05 0.00239162)
(0.0268353 0.000138161 0.00441142)
(0.0263951 8.52085e-05 0.0077617)
(0.0238604 -0.0010587 0.0128725)
(0.0036035 0.00226668 -2.31596e-05)
(0.00358886 0.00250921 -3.46967e-05)
(0.00347079 0.00293772 -4.09498e-05)
(0.00324755 0.0035538 -3.59191e-05)
(0.00292072 0.00435132 -1.63074e-05)
(0.00249949 0.00530255 1.88665e-05)
(0.00200363 0.00634228 6.65332e-05)
(0.00147102 0.00735425 0.0001205)
(0.00381334 0.00216187 -4.06178e-05)
(0.00398289 0.00252174 -4.69538e-05)
(0.00405001 0.00306684 -3.87051e-05)
(0.00400808 0.00380209 -7.01948e-06)
(0.00384238 0.00472152 5.71561e-05)
(0.00352857 0.00579265 0.000160485)
(0.00304047 0.00693957 0.00030408)
(0.00236262 0.00802493 0.000475754)
(0.00414185 0.00189312 -5.16775e-05)
(0.00449394 0.00236743 -4.55462e-05)
(0.00475127 0.00302902 -1.25343e-05)
(0.00490242 0.00389514 6.34001e-05)
(0.00491161 0.00496989 0.000201261)
(0.00471806 0.00623241 0.0004209)
(0.00423666 0.00760877 0.000733683)
(0.0033728 0.00893917 0.00111742)
(0.00458751 0.00146063 -5.00009e-05)
(0.0051189 0.00203974 -2.23073e-05)
(0.00557787 0.00280783 5.17586e-05)
(0.00594924 0.00379972 0.000200694)
(0.00618015 0.00504869 0.000466062)
(0.00616825 0.00656435 0.00089609)
(0.00574844 0.00829577 0.00152282)
(0.00469739 0.0100751 0.00233139)
(0.00514167 0.000872555 -3.28207e-05)
(0.00584125 0.00153284 2.91161e-05)
(0.00651148 0.00237072 0.00016598)
(0.00714371 0.00345209 0.00043333)
(0.00767698 0.00485413 0.000914119)
(0.00796635 0.00664117 0.00170883)
(0.0077491 0.00882331 0.00292245)
(0.00659184 0.0112652 0.00459573)
(0.00578111 0.000153581 -1.81004e-06)
(0.0066172 0.000844902 0.000109501)
(0.00749743 0.00167958 0.000339374)
(0.00843324 0.00276163 0.000786058)
(0.00937026 0.00421716 0.00160148)
(0.0101388 0.00618951 0.00300522)
(0.0103727 0.0088007 0.00527317)
(0.0093397 0.0120768 0.00865813)
(0.00645462 -0.000644767 3.83819e-05)
(0.00736744 -5.72623e-06 0.00021471)
(0.00842859 0.00071173 0.000566227)
(0.00968201 0.00162998 0.00125518)
(0.0111058 0.00291161 0.00255248)
(0.0125486 0.00475667 0.0048981)
(0.0136174 0.00743855 0.00893541)
(0.0132699 0.0113391 0.0156118)
(0.00707835 -0.00144011 7.78768e-05)
(0.0079739 -0.000962848 0.000327801)
(0.00913357 -0.000516296 0.000815629)
(0.0106338 7.13347e-06 0.00178531)
(0.0124961 0.000739813 0.00368102)
(0.0146467 0.00181555 0.0072884)
(0.0168023 0.00338762 0.0139702)
(0.0172582 0.00496797 0.0261356)
(0.141768 0.00555263 4.53958e-05)
(0.141491 0.00579788 4.91181e-05)
(0.141342 0.00572778 4.63007e-05)
(0.141357 0.00535194 3.741e-05)
(0.142095 0.00582211 0.000154552)
(0.141517 0.00596974 0.00017161)
(0.141048 0.00575164 0.000165653)
(0.140799 0.00519696 0.000137048)
(0.142373 0.00611758 0.000335925)
(0.141424 0.00618937 0.000374254)
(0.140573 0.00580466 0.000360509)
(0.140035 0.00501103 0.000294369)
(0.142631 0.00630808 0.000658063)
(0.14121 0.00630841 0.000736595)
(0.139875 0.00572999 0.000707811)
(0.138988 0.004632 0.000568365)
(0.142872 0.00610904 0.00121793)
(0.140857 0.00600974 0.00137022)
(0.138907 0.00521239 0.00131682)
(0.137587 0.00376565 0.00104227)
(0.143034 0.00499328 0.00212132)
(0.140332 0.00470443 0.00239559)
(0.13765 0.00370788 0.00230122)
(0.135824 0.00200268 0.0017794)
(0.142909 0.00202952 0.00342147)
(0.1396 0.00122795 0.00386876)
(0.136237 3.87123e-05 0.00372394)
(0.133799 -0.00165035 0.00282818)
(0.141813 -0.00419735 0.00471961)
(0.13837 -0.00612661 0.00538169)
(0.134823 -0.00735854 0.00517575)
(0.132142 -0.00819566 0.0038186)
(0.017249 0.007543 0.000132929)
(0.0168714 0.00788819 0.000146851)
(0.0166647 0.00778979 0.000140897)
(0.0166777 0.00726113 0.00011629)
(0.0177123 0.00799075 0.00046646)
(0.0169107 0.00821255 0.00052171)
(0.0162504 0.00790886 0.000505803)
(0.0158934 0.00711907 0.000419994)
(0.0181317 0.0085815 0.00103632)
(0.0167945 0.00872541 0.00116097)
(0.0155759 0.00818717 0.00112011)
(0.0147933 0.00702929 0.000914184)
(0.0185744 0.0091883 0.00208414)
(0.0165249 0.00928323 0.00234795)
(0.0145625 0.00846866 0.00225598)
(0.0132284 0.00681432 0.00180375)
(0.0190872 0.00947121 0.0039918)
(0.0160901 0.00950689 0.00452416)
(0.0131222 0.00837236 0.0043423)
(0.0110129 0.00608977 0.00339908)
(0.0196358 0.00871292 0.00729014)
(0.0154524 0.00859071 0.00831308)
(0.011176 0.00715769 0.00797966)
(0.00803601 0.00429021 0.00612449)
(0.0199693 0.00537604 0.0126342)
(0.0145769 0.00473461 0.0144703)
(0.00890282 0.00303038 0.0139112)
(0.00430792 -7.82989e-05 0.01053)
(0.0190832 -0.00521327 0.0187414)
(0.0131569 -0.0079567 0.0216528)
(0.00665181 -0.00965125 0.0211758)
(0.000706874 -0.0111291 0.0160377)
(0.000961439 0.00816471 0.00016928)
(0.000549462 0.00857346 0.000198167)
(0.000311298 0.00846507 0.000198586)
(0.000306693 0.00785351 0.000171306)
(0.00151513 0.00884032 0.000640567)
(0.000608722 0.0091428 0.000731519)
(-0.000164741 0.00880557 0.000718022)
(-0.000604353 0.00786948 0.000600232)
(0.0020806 0.00994189 0.00149191)
(0.000516181 0.0102337 0.00169673)
(-0.000960549 0.00962557 0.00164825)
(-0.00194019 0.00818058 0.00134454)
(0.00281171 0.011513 0.00316502)
(0.000295003 0.0118991 0.00361473)
(-0.00221497 0.0109584 0.00349295)
(-0.00398157 0.00873157 0.00278297)
(0.00390663 0.013472 0.00646523)
(-3.36001e-05 0.0140699 0.00744711)
(-0.00412015 0.0127256 0.00719083)
(-0.00717588 0.00935982 0.00559786)
(0.00560266 0.0155725 0.0128939)
(-0.000442481 0.0165128 0.0150106)
(-0.00688562 0.014752 0.0145426)
(-0.0121509 0.0099328 0.0111382)
(0.00816769 0.0160833 0.0255975)
(-0.000838605 0.0174127 0.0300639)
(-0.0104246 0.0156396 0.0293764)
(-0.0194706 0.00952848 0.0225187)
(0.0103443 0.000866901 0.0441615)
(-0.000868906 -0.00119358 0.0517073)
(-0.0130539 -0.00266454 0.0512746)
(-0.0279508 -0.00598878 0.0402719)
(0.141539 0.00475354 2.56007e-05)
(0.141856 0.00405857 1.59465e-05)
(0.142242 0.00337472 1.00117e-05)
(0.142638 0.00277168 6.81781e-06)
(0.142998 0.00228612 4.90736e-06)
(0.143295 0.00193245 3.14662e-06)
(0.143519 0.00171276 9.5813e-07)
(0.143661 0.00162463 -4.09061e-06)
(0.140839 0.0044271 9.55433e-05)
(0.141139 0.00361809 5.91273e-05)
(0.141598 0.00289119 3.38562e-05)
(0.142112 0.00230396 1.82655e-05)
(0.14261 0.00187347 9.12475e-06)
(0.143046 0.00159627 3.57961e-06)
(0.143405 0.00146133 -2.59671e-07)
(0.143681 0.00145718 -3.42609e-06)
(0.139963 0.00398863 0.000196813)
(0.140321 0.00301435 0.000115706)
(0.140929 0.00222822 6.20644e-05)
(0.141621 0.00166262 3.0305e-05)
(0.14229 0.00130255 1.28049e-05)
(0.142883 0.00111848 3.63627e-06)
(0.14338 0.0010806 -1.36552e-06)
(0.143783 0.00116978 -3.8284e-06)
(0.138845 0.00327369 0.000354153)
(0.13938 0.00211278 0.000193412)
(0.140247 0.00129555 9.61348e-05)
(0.141187 0.000798049 4.23371e-05)
(0.142066 0.000553854 1.50032e-05)
(0.142825 0.000494313 2.78392e-06)
(0.143456 0.000572693 -2.48097e-06)
(0.143977 0.000761308 -3.65912e-06)
(0.137448 0.00203386 0.000579629)
(0.138345 0.000737829 0.000285422)
(0.139615 -1.75291e-05 0.00012772)
(0.140879 -0.000346013 4.83229e-05)
(0.141987 -0.00039303 1.32729e-05)
(0.142902 -0.000271918 -6.37894e-07)
(0.143647 -4.783e-05 -4.69442e-06)
(0.144261 0.000247975 -2.74608e-06)
(0.135825 -0.000110563 0.000875771)
(0.137332 -0.00135577 0.000374002)
(0.139163 -0.0018101 0.00013205)
(0.140811 -0.00178165 2.90802e-05)
(0.142139 -0.00150953 -5.92471e-06)
(0.14317 -0.00113843 -1.36378e-05)
(0.143976 -0.000740098 -1.09886e-05)
(0.144634 -0.000336967 -2.55207e-06)
(0.134105 -0.00372076 0.00113502)
(0.136649 -0.0043455 0.000339259)
(0.139189 -0.00405457 4.06013e-05)
(0.141179 -0.003402 -5.0766e-05)
(0.142629 -0.00267605 -5.79561e-05)
(0.143671 -0.00200413 -4.35891e-05)
(0.144448 -0.00142578 -2.50126e-05)
(0.145078 -0.00093563 -5.03629e-06)
(0.133181 -0.00887676 0.000846853)
(0.137008 -0.00785989 -0.00010018)
(0.140105 -0.00633196 -0.000284506)
(0.142187 -0.00486978 -0.000248023)
(0.143535 -0.00365188 -0.000168045)
(0.144419 -0.0027026 -9.9186e-05)
(0.145044 -0.00198989 -4.97011e-05)
(0.145551 -0.00146534 -1.15813e-05)
(0.0169217 0.00642252 8.23946e-05)
(0.0173484 0.00545869 5.41757e-05)
(0.0178686 0.00451965 3.63488e-05)
(0.0183986 0.00369832 2.61437e-05)
(0.0188787 0.0030413 1.9525e-05)
(0.0192743 0.00256521 1.33374e-05)
(0.0195702 0.00227057 5.98669e-06)
(0.0197633 0.00215319 -4.66586e-06)
(0.0159425 0.00602053 0.00029444)
(0.0163568 0.00488382 0.000183673)
(0.0169854 0.00387744 0.000106353)
(0.0176843 0.00307366 5.82429e-05)
(0.0183546 0.00248959 2.95898e-05)
(0.0189406 0.0021163 1.18012e-05)
(0.019419 0.00193587 -8.07644e-07)
(0.0197865 0.00193343 -1.05424e-05)
(0.0146892 0.0055155 0.000611263)
(0.015207 0.00411095 0.00035868)
(0.0160594 0.00300377 0.000191828)
(0.0170112 0.00222027 9.31859e-05)
(0.0179216 0.00172789 3.86532e-05)
(0.0187207 0.00147938 9.64509e-06)
(0.0193875 0.00142951 -6.88909e-06)
(0.0199275 0.00155137 -1.58029e-05)
(0.0130284 0.00467563 0.00112392)
(0.0138474 0.00294203 0.000607751)
(0.0150959 0.00176436 0.000298256)
(0.0164089 0.00106335 0.000129332)
(0.0176139 0.000726307 4.39216e-05)
(0.0186423 0.000646075 5.32127e-06)
(0.0194911 0.000753574 -1.23527e-05)
(0.0201899 0.00101017 -1.77025e-05)
(0.0108245 0.00314903 0.00190258)
(0.0122992 0.00111843 0.000914935)
(0.014182 -1.15836e-05 0.000399205)
(0.0159735 -0.000487121 0.000146882)
(0.0175043 -0.000551597 3.69343e-05)
(0.0187479 -0.000382552 -6.22625e-06)
(0.0197516 -7.47403e-05 -2.02941e-05)
(0.0205768 0.000329131 -1.66563e-05)
(0.00807586 0.000328167 0.00289641)
(0.0106934 -0.00178361 0.00119648)
(0.0134917 -0.00250728 0.000408213)
(0.0158688 -0.00247172 8.28865e-05)
(0.0177181 -0.00207815 -2.39289e-05)
(0.0191189 -0.00155534 -4.63873e-05)
(0.0202026 -0.00100306 -3.98218e-05)
(0.021087 -0.000449563 -1.67118e-05)
(0.00483823 -0.00494261 0.00390068)
(0.00948885 -0.00622369 0.0010745)
(0.0134973 -0.00578243 9.4928e-05)
(0.0164017 -0.00477992 -0.000180691)
(0.0184195 -0.00370481 -0.00018608)
(0.0198223 -0.00273946 -0.000139132)
(0.020857 -0.00192731 -8.21882e-05)
(0.0216978 -0.00124883 -2.34269e-05)
(0.00245609 -0.0140151 0.00290142)
(0.00998517 -0.0120534 -0.000551426)
(0.0149536 -0.00935274 -0.00104565)
(0.0179455 -0.00696479 -0.000829696)
(0.0197564 -0.00509642 -0.000540163)
(0.0208951 -0.00370305 -0.000311613)
(0.0216927 -0.00268933 -0.000156082)
(0.0223559 -0.00195709 -4.13011e-05)
(0.000555982 0.00688622 0.000129061)
(0.00100625 0.00579558 9.29632e-05)
(0.00155432 0.00475396 6.94882e-05)
(0.00210808 0.00385849 5.49537e-05)
(0.00260593 0.00315128 4.34293e-05)
(0.00301367 0.00264353 3.07512e-05)
(0.00331716 0.00233125 1.52053e-05)
(0.00351369 0.00220729 -2.89573e-06)
(-0.000569649 0.00655742 0.000422097)
(-0.000110479 0.00523571 0.000265311)
(0.000579126 0.00409889 0.000156363)
(0.00133204 0.00321159 8.82641e-05)
(0.00204341 0.00257786 4.61774e-05)
(0.00265848 0.00217806 1.79344e-05)
(0.00315748 0.00198599 -4.8651e-06)
(0.0035404 0.00198353 -2.45213e-05)
(-0.00207692 0.00624561 0.000889333)
(-0.00145174 0.00452173 0.000515289)
(-0.000469507 0.00322312 0.000272162)
(0.000587199 0.00233446 0.000130114)
(0.00157248 0.00178927 5.08546e-05)
(0.00242189 0.0015195 6.99857e-06)
(0.00312277 0.0014649 -2.17895e-05)
(0.00368974 0.00159337 -4.15381e-05)
(-0.00422672 0.00571198 0.00169808)
(-0.00313205 0.00341094 0.000896672)
(-0.00160773 0.0019562 0.00042866)
(-0.000101646 0.00112966 0.000179693)
(0.00122851 0.000745458 5.48248e-05)
(0.00233414 0.00065405 -3.87714e-06)
(0.00323142 0.000766892 -3.50539e-05)
(0.00396872 0.00103998 -5.07863e-05)
(-0.00739024 0.0044799 0.00302212)
(-0.00520463 0.00155168 0.00140169)
(-0.00274993 5.76953e-05 0.000588402)
(-0.000623354 -0.000537323 0.000207349)
(0.00109689 -0.000616511 4.25838e-05)
(0.00244331 -0.000430062 -2.1381e-05)
(0.0035087 -9.60944e-05 -4.84237e-05)
(0.00438351 0.000339295 -5.29871e-05)
(-0.0119787 0.00181491 0.00483441)
(-0.00753639 -0.00172955 0.00185513)
(-0.00369296 -0.0028011 0.000607569)
(-0.000775324 -0.00277552 0.000116231)
(0.00133574 -0.00229333 -4.67875e-05)
(0.00285448 -0.00169288 -7.53587e-05)
(0.00400073 -0.00107545 -7.46564e-05)
(0.00493737 -0.000467982 -5.3055e-05)
(-0.0185454 -0.0046322 0.00688927)
(-0.0096872 -0.00761244 0.00163244)
(-0.0037723 -0.00697779 9.51593e-05)
(-0.000112551 -0.00555383 -0.000285827)
(0.00217961 -0.00416858 -0.000289973)
(0.00366103 -0.00300141 -0.000209159)
(0.0047335 -0.00206346 -0.000131482)
(0.00561252 -0.0013029 -5.90019e-05)
(-0.0254241 -0.0215987 0.00449155)
(-0.00898697 -0.0174191 -0.00182692)
(-0.00150152 -0.012267 -0.00198189)
(0.00204977 -0.00845966 -0.0013682)
(0.0038894 -0.00586022 -0.000828393)
(0.00495943 -0.00408887 -0.000457916)
(0.00569909 -0.00288312 -0.000231061)
(0.00635602 -0.00204577 -7.78858e-05)
(0.146307 -0.00156499 3.25947e-05)
(0.146683 -0.00146022 0.000107338)
(0.147106 -0.00150493 0.000237062)
(0.147506 -0.0017035 0.000473075)
(0.147704 -0.00209122 0.000889986)
(0.147335 -0.00276085 0.00157475)
(0.145682 -0.0039174 0.0025727)
(0.141913 -0.00602149 0.00350791)
(0.146405 -0.00188252 3.2184e-05)
(0.146591 -0.00199298 0.000112803)
(0.146817 -0.00232057 0.000249249)
(0.146989 -0.00289557 0.000496336)
(0.146892 -0.00377031 0.000930927)
(0.146105 -0.00501692 0.0016343)
(0.143797 -0.00671248 0.00262762)
(0.139031 -0.00891309 0.00342569)
(0.146294 -0.00198087 2.73472e-05)
(0.146245 -0.00229954 0.000102925)
(0.146203 -0.00287532 0.000226937)
(0.146055 -0.00376443 0.000449052)
(0.14558 -0.00503544 0.000837162)
(0.144378 -0.00674278 0.00145723)
(0.1417 -0.00885542 0.00231254)
(0.136731 -0.0110729 0.0029614)
(0.14599 -0.00183741 1.88231e-05)
(0.145696 -0.00230652 7.85224e-05)
(0.145351 -0.00302828 0.000170305)
(0.144826 -0.00407329 0.000327654)
(0.143907 -0.00551958 0.000590755)
(0.14226 -0.00741939 0.000986479)
(0.139355 -0.00970686 0.00147086)
(0.134748 -0.0119082 0.00167124)
(0.0234036 -0.00207168 9.33705e-05)
(0.0239736 -0.00191578 0.000320777)
(0.0246861 -0.00195014 0.000728451)
(0.0254849 -0.00216735 0.00149834)
(0.0261663 -0.00260027 0.0029223)
(0.026227 -0.00336776 0.0054147)
(0.0243806 -0.00475813 0.00943295)
(0.0179192 -0.00745001 0.0139414)
(0.023546 -0.00250173 9.58927e-05)
(0.0238613 -0.00264906 0.000342072)
(0.0243179 -0.0030905 0.000773967)
(0.024825 -0.00386777 0.00158987)
(0.0251234 -0.00505572 0.0031035)
(0.024616 -0.00676263 0.00573846)
(0.0218077 -0.00907108 0.0099259)
(0.0131547 -0.0117043 0.0142895)
(0.0233925 -0.00264071 8.50234e-05)
(0.0233847 -0.00308422 0.000315967)
(0.023467 -0.00389126 0.000710148)
(0.0235179 -0.00515644 0.00145023)
(0.023259 -0.00700433 0.00282317)
(0.0221156 -0.00954951 0.00520876)
(0.0187651 -0.0127449 0.00898771)
(0.00971367 -0.0156558 0.013067)
(0.0229649 -0.00245573 6.24889e-05)
(0.0226102 -0.00311402 0.0002444)
(0.0222442 -0.00414273 0.000536496)
(0.0217075 -0.00567413 0.00106429)
(0.0207095 -0.00788095 0.00201129)
(0.0187421 -0.0109321 0.0036066)
(0.0148508 -0.0148265 0.00605364)
(0.0063357 -0.0185651 0.00821796)
(0.00753759 -0.0021225 0.000108259)
(0.00829143 -0.00192074 0.000422702)
(0.0093989 -0.00189131 0.0010244)
(0.0109381 -0.00198379 0.00224231)
(0.0129063 -0.00216011 0.00469596)
(0.0151044 -0.00242801 0.00958158)
(0.0160159 -0.00276785 0.0195686)
(0.00630777 -0.00272646 0.0352484)
(0.00771391 -0.00258277 0.00012342)
(0.00820518 -0.0027323 0.000467348)
(0.00907057 -0.00319533 0.00111348)
(0.0103635 -0.00401226 0.00243167)
(0.012031 -0.00525587 0.00512881)
(0.0137963 -0.00702584 0.010597)
(0.0139365 -0.0091874 0.0219838)
(8.10264e-05 -0.00910618 0.0395785)
(0.0075455 -0.00274278 0.000120452)
(0.00767881 -0.0032428 0.000443387)
(0.00811853 -0.00416843 0.00103737)
(0.00887379 -0.00566757 0.00225128)
(0.00985491 -0.00795782 0.0047634)
(0.0107973 -0.0112657 0.00995634)
(0.0104599 -0.0154148 0.0211214)
(-0.00400439 -0.0168099 0.0389906)
(0.00705518 -0.00256251 9.97501e-05)
(0.00677933 -0.00331878 0.000351433)
(0.00664485 -0.00454138 0.000790654)
(0.0065673 -0.00647315 0.00166401)
(0.00637121 -0.00950784 0.0034401)
(0.00577332 -0.0141676 0.00712752)
(0.00371518 -0.0209066 0.0154113)
(-0.0102067 -0.0267752 0.0294883)
(0.138419 -0.00956083 0.00243347)
(0.136423 -0.0119897 0.00231103)
(0.134239 -0.0129239 0.00209256)
(0.132499 -0.0126789 0.00114182)
(0.135541 -0.0115538 0.0012161)
(0.134923 -0.0133205 0.000661904)
(0.134205 -0.0136726 0.000396972)
(0.133602 -0.0127169 -0.000353807)
(0.133666 -0.0127348 0.000423643)
(0.134211 -0.0136897 -0.000343986)
(0.13489 -0.0133375 -0.000611871)
(0.135455 -0.0115702 -0.00115401)
(0.132525 -0.0127374 -0.00106238)
(0.134206 -0.0129829 -0.00202875)
(0.136354 -0.0120491 -0.00225729)
(0.138309 -0.00961915 -0.00237948)
(0.0122379 -0.0125617 0.00773136)
(0.0101361 -0.0162046 0.00738762)
(0.00661027 -0.0174486 0.00693159)
(0.00245136 -0.0171342 0.00387246)
(0.00730729 -0.0137946 0.00370358)
(0.00787237 -0.01612 0.00182913)
(0.0067807 -0.0166036 0.00121283)
(0.00439132 -0.0155062 -0.00122681)
(0.00443952 -0.0155329 0.00138175)
(0.00678549 -0.0166099 -0.00109445)
(0.00784458 -0.0161122 -0.00171469)
(0.007237 -0.0137778 -0.0035592)
(0.00247349 -0.0171835 -0.0036828)
(0.0065803 -0.0174664 -0.00676827)
(0.0100675 -0.0162108 -0.00723775)
(0.0121251 -0.0125718 -0.00757626)
(-0.00436326 0.00586249 0.0107674)
(-0.00413778 0.00308219 0.00898021)
(-0.00835928 0.00210635 0.00834188)
(-0.016887 0.00114845 0.00329249)
(-0.0108741 0.00992846 0.00569723)
(-0.00649342 0.00933748 0.0017153)
(-0.00759759 0.00889009 0.000878218)
(-0.0139523 0.00799143 -0.00361489)
(-0.0140058 0.00804344 0.00369252)
(-0.00761883 0.00893398 -0.000808866)
(-0.00648094 0.00937694 -0.00164666)
(-0.0108373 0.00992657 -0.00561765)
(-0.0169063 0.00122499 -0.00319118)
(-0.00837581 0.0022084 -0.00824941)
(-0.00415535 0.00318068 -0.00888984)
(-0.00438927 0.00590108 -0.0106516)
(0.134634 -0.0118585 -0.00160745)
(0.139235 -0.00967962 -0.00146845)
(0.142179 -0.00740436 -0.000996926)
(0.143854 -0.00551133 -0.000600666)
(0.144793 -0.00406887 -0.000334862)
(0.145331 -0.00302569 -0.000175132)
(0.145685 -0.00230449 -8.18516e-05)
(0.145985 -0.00183512 -2.15622e-05)
(0.136577 -0.0110587 -0.00290375)
(0.141549 -0.0088491 -0.00232048)
(0.144279 -0.00674071 -0.00147584)
(0.145519 -0.0050354 -0.000852066)
(0.146018 -0.00376526 -0.000459071)
(0.146182 -0.00287617 -0.000233281)
(0.146234 -0.0022999 -0.000107049)
(0.146291 -0.00198047 -3.05025e-05)
(0.138862 -0.00893074 -0.00337677)
(0.143637 -0.00672566 -0.00264099)
(0.146002 -0.0050272 -0.00165645)
(0.146828 -0.00377815 -0.000947933)
(0.146951 -0.00290135 -0.000507569)
(0.146796 -0.00232464 -0.000256255)
(0.14658 -0.00199563 -0.000117245)
(0.146403 -0.00188398 -3.54301e-05)
(0.141746 -0.00607601 -0.00347257)
(0.145533 -0.00395215 -0.00258741)
(0.147239 -0.00278388 -0.00159597)
(0.147646 -0.00210677 -0.000906203)
(0.147472 -0.00171393 -0.000483833)
(0.147087 -0.00151191 -0.000243804)
(0.146674 -0.00146491 -0.000111584)
(0.146305 -0.00156819 -3.55941e-05)
(0.00620972 -0.0184848 -0.00803538)
(0.0147013 -0.0147795 -0.00606218)
(0.0186605 -0.0108992 -0.0036358)
(0.0206619 -0.00785708 -0.00203378)
(0.0216788 -0.00565741 -0.00107982)
(0.0222277 -0.00413101 -0.000546819)
(0.0226022 -0.00310558 -0.000251606)
(0.0229636 -0.00244928 -6.84987e-05)
(0.00955272 -0.0156186 -0.0129106)
(0.0185752 -0.0127183 -0.00902565)
(0.0220099 -0.00953024 -0.00525597)
(0.023197 -0.00699037 -0.00285582)
(0.0234804 -0.00514681 -0.00147138)
(0.0234452 -0.00388481 -0.000723492)
(0.0233736 -0.00308001 -0.00032478)
(0.0233895 -0.00263809 -9.18895e-05)
(0.0129759 -0.0116991 -0.0141563)
(0.0216049 -0.00906353 -0.00997518)
(0.0245007 -0.00675758 -0.00579259)
(0.025055 -0.00505283 -0.0031403)
(0.0247834 -0.00386635 -0.00161345)
(0.0242935 -0.00309016 -0.000788659)
(0.0238484 -0.00264964 -0.000351552)
(0.0235416 -0.00250327 -0.00010295)
(0.0177277 -0.00749079 -0.0138192)
(0.024185 -0.00477626 -0.00947253)
(0.0261135 -0.00338017 -0.00546285)
(0.0260986 -0.00261009 -0.00295631)
(0.0254437 -0.00217493 -0.00152064)
(0.0246618 -0.00195624 -0.000742554)
(0.0239604 -0.0019212 -0.000329861)
(0.0233983 -0.00207722 -9.9927e-05)
(-0.0101037 -0.0267397 -0.0291151)
(0.0035111 -0.0209111 -0.0154794)
(0.00572254 -0.0141597 -0.0071928)
(0.00635113 -0.00949402 -0.00347628)
(0.00655537 -0.0064607 -0.00168569)
(0.00663821 -0.0045313 -0.000804146)
(0.00677643 -0.0033109 -0.00036059)
(0.00705547 -0.00255629 -0.000107326)
(-0.00384772 -0.0168192 -0.0386997)
(0.0102534 -0.0154054 -0.0212409)
(0.0107494 -0.0112563 -0.0100485)
(0.0098333 -0.0079486 -0.0048139)
(0.00885906 -0.00565992 -0.00228063)
(0.00810939 -0.00416264 -0.00105485)
(0.00767392 -0.00323875 -0.00045463)
(0.00754433 -0.00274022 -0.000129143)
(0.000220527 -0.00912158 -0.0393289)
(0.0137357 -0.00916438 -0.0221219)
(0.0137467 -0.00701436 -0.0106984)
(0.0120069 -0.00525031 -0.0051847)
(0.0103464 -0.00400944 -0.00246412)
(0.00905955 -0.00319422 -0.00113268)
(0.00819873 -0.00273246 -0.000479449)
(0.00771138 -0.00258412 -0.000132368)
(0.00635458 -0.00277717 -0.0349768)
(0.0158158 -0.0027433 -0.0196725)
(0.0150445 -0.00241933 -0.00966783)
(0.012877 -0.00216115 -0.00474609)
(0.0109188 -0.00198731 -0.00227247)
(0.00938664 -0.00189555 -0.00104267)
(0.00828401 -0.00192535 -0.000434263)
(0.00753399 -0.0021277 -0.000116551)
(0.145556 -0.00146939 9.44193e-06)
(0.145053 -0.00199435 4.73811e-05)
(0.144435 -0.00270883 9.6236e-05)
(0.143561 -0.00366197 0.000164359)
(0.142225 -0.00488707 0.000244464)
(0.140158 -0.00636186 0.000284951)
(0.137076 -0.00791177 0.000116193)
(0.133227 -0.00896652 -0.000789399)
(0.145082 -0.000940955 3.4643e-06)
(0.144456 -0.00143212 2.35196e-05)
(0.143682 -0.00201309 4.1984e-05)
(0.142645 -0.00268999 5.63007e-05)
(0.141199 -0.0034246 4.97617e-05)
(0.139212 -0.00409142 -3.88914e-05)
(0.136669 -0.00440507 -0.000330603)
(0.134099 -0.00381504 -0.0011157)
(0.144638 -0.000342816 1.41733e-06)
(0.143981 -0.000747211 1.00678e-05)
(0.143176 -0.00114819 1.28142e-05)
(0.142147 -0.00152382 5.21362e-06)
(0.140819 -0.00180292 -2.93407e-05)
(0.139169 -0.00184164 -0.000131153)
(0.137328 -0.00140142 -0.000370998)
(0.135803 -0.00017313 -0.000871847)
(0.144264 0.000242373 1.88746e-06)
(0.14365 -5.46837e-05 4.09173e-06)
(0.142905 -0.000280952 2.29397e-07)
(0.141989 -0.00040529 -1.35918e-05)
(0.14088 -0.000362962 -4.83973e-05)
(0.139612 -4.04772e-05 -0.000127465)
(0.138335 0.000707975 -0.000284984)
(0.137426 0.00199775 -0.000580063)
(0.143979 0.000756372 2.80399e-06)
(0.143457 0.000566668 1.93255e-06)
(0.142825 0.000486627 -3.01408e-06)
(0.142065 0.000544076 -1.50616e-05)
(0.141184 0.000785501 -4.2336e-05)
(0.14024 0.00128 -9.61391e-05)
(0.139368 0.00209452 -0.000193704)
(0.138827 0.00325347 -0.000355603)
(0.143784 0.00116618 2.71585e-06)
(0.14338 0.00107568 6.75192e-07)
(0.142882 0.00111244 -3.88978e-06)
(0.142288 0.00129504 -1.28981e-05)
(0.141616 0.00165363 -3.03698e-05)
(0.140922 0.00221788 -6.22387e-05)
(0.14031 0.0030032 -0.000116233)
(0.139949 0.0039776 -0.000198222)
(0.14368 0.00145888 1.20992e-06)
(0.143404 0.00145845 -7.84474e-07)
(0.143045 0.00159217 -4.08108e-06)
(0.142606 0.00186841 -9.37439e-06)
(0.142107 0.00229793 -1.85036e-05)
(0.14159 0.0028845 -3.42324e-05)
(0.14113 0.00361132 -5.98222e-05)
(0.140829 0.00442097 -9.68153e-05)
(0.143661 0.00162372 -3.98028e-06)
(0.143513 0.00171358 -3.07122e-06)
(0.143292 0.00193029 -4.03392e-06)
(0.142994 0.00228316 -5.5003e-06)
(0.142632 0.00276798 -7.36125e-06)
(0.142236 0.00337063 -1.07149e-05)
(0.141848 0.00405452 -1.6963e-05)
(0.141532 0.00475003 -2.70209e-05)
(0.0223554 -0.00196654 3.65245e-05)
(0.0216969 -0.00270091 0.000150896)
(0.0209047 -0.00371863 0.000304952)
(0.0197733 -0.00511862 0.000531441)
(0.0179732 -0.00699745 0.000819764)
(0.0149988 -0.00940186 0.00104127)
(0.0100592 -0.0121324 0.000580268)
(0.00251711 -0.0141568 -0.00275246)
(0.0216958 -0.00125992 1.98595e-05)
(0.0208573 -0.00194032 7.87093e-05)
(0.0198245 -0.00275638 0.000135124)
(0.0184234 -0.00372831 0.000181269)
(0.0164064 -0.00481392 0.00017547)
(0.0135011 -0.00583346 -9.83847e-05)
(0.00948579 -0.00630375 -0.00107124)
(0.00480374 -0.00507648 -0.00388978)
(0.0210842 -0.000460757 1.41553e-05)
(0.0201999 -0.0010156 3.76106e-05)
(0.0191154 -0.00157074 4.40665e-05)
(0.0177127 -0.00209829 2.12207e-05)
(0.0158595 -0.00249853 -8.62727e-05)
(0.0134755 -0.00254354 -0.000412667)
(0.0106643 -0.00183292 -0.00120375)
(0.00802597 0.000263193 -0.00291573)
(0.0205736 0.00031909 1.48489e-05)
(0.019747 -8.54645e-05 1.89237e-05)
(0.0187411 -0.000394783 4.94893e-06)
(0.0174942 -0.000566128 -3.83725e-05)
(0.0159585 -0.000504822 -0.000149049)
(0.0141597 -3.26952e-05 -0.000402915)
(0.0122679 0.00109416 -0.000922245)
(0.0107832 0.00312394 -0.00191973)
(0.0201868 0.00100206 1.62949e-05)
(0.0194858 0.00074532 1.14416e-05)
(0.0186344 0.000637286 -5.94693e-06)
(0.0176022 0.000716847 -4.47509e-05)
(0.0163925 0.00105306 -0.000130679)
(0.0150741 0.00175389 -0.000300986)
(0.0138203 0.00293269 -0.00061348)
(0.0129975 0.00466853 -0.00113593)
(0.0199247 0.00154546 1.45254e-05)
(0.0193821 0.00142393 6.08127e-06)
(0.0187125 0.00147383 -1.00273e-05)
(0.0179099 0.00172233 -3.91106e-05)
(0.0169958 0.00221516 -9.40709e-05)
(0.0160403 0.00299971 -0.000193763)
(0.015185 0.00410883 -0.000362684)
(0.0146667 0.00551611 -0.00061895)
(0.0197837 0.00193136 8.66805e-06)
(0.019414 0.00193302 -1.00629e-07)