/*--------------------------------*- C++ -*----------------------------------*\
  =========                 |
  \\      /  F ield         | OpenFOAM: The Open Source CFD Toolbox
   \\    /   O peration     | Website:  https://openfoam.org
    \\  /    A nd           | Version:  7
     \\/     M anipulation  |
\*---------------------------------------------------------------------------*/
FoamFile
{
    version     2.0;
    format      ascii;
    class       volScalarField;
    location    "1.75";
    object      p;
}
// * * * * * * * * * * * * * * * * * * * * * * * * * * * * * * * * * * * * * //

dimensions      [0 2 -2 0 0 0 0];

internalField   nonuniform List<scalar> 
7784
(
-3.61294e-10
-0.000376443
-0.00118033
-0.00223728
-0.00302162
-0.00358941
-0.00406468
0.000441646
-8.08849e-05
-0.00112615
-0.00222705
-0.00300224
-0.00357288
-0.00405416
0.000431744
-0.000106237
-0.00114453
-0.00222675
-0.00299301
-0.0035637
-0.00404689
0.000430196
-0.00011032
-0.00114716
-0.00222407
-0.00298744
-0.00355776
-0.00404156
0.000439307
-0.000104505
-0.00114389
-0.00222036
-0.00298288
-0.00355304
-0.00403724
0.000447183
-9.92359e-05
-0.0011403
-0.00221682
-0.00297909
-0.00354928
-0.00403379
0.000453614
-9.45253e-05
-0.00113677
-0.0022136
-0.00297598
-0.00354633
-0.00403109
-0.000915946
-0.00129257
-0.00201898
-0.00274838
-0.00330303
-0.00376002
-0.00417203
-0.000750324
-0.00118018
-0.00198074
-0.00272617
-0.00328102
-0.0037434
-0.00416094
-0.000741883
-0.00118216
-0.00197924
-0.00271574
-0.00326809
-0.00373256
-0.00415265
-0.000728638
-0.0011735
-0.00197253
-0.00270762
-0.00325958
-0.00372502
-0.00414643
-0.000711667
-0.00116108
-0.00196407
-0.00270038
-0.0032528
-0.00371901
-0.00414135
-0.000698542
-0.00115133
-0.00195704
-0.00269447
-0.00324744
-0.00371427
-0.0041373
-0.000688736
-0.00114377
-0.00195134
-0.00268972
-0.00324327
-0.00371062
-0.00413415
-0.00207044
-0.00225113
-0.00266263
-0.00312741
-0.00354114
-0.00391957
-0.00427711
-0.00200088
-0.00218857
-0.00262394
-0.00310124
-0.0035201
-0.00390405
-0.00426633
-0.00197124
-0.0021671
-0.00260757
-0.00308569
-0.00350617
-0.003893
-0.00425799
-0.00194913
-0.0021504
-0.0025949
-0.00307453
-0.00349637
-0.00388489
-0.00425154
-0.0019303
-0.00213575
-0.00258383
-0.00306538
-0.00348855
-0.00387835
-0.00424621
-0.00191594
-0.00212449
-0.00257513
-0.00305818
-0.00348242
-0.00387318
-0.00424193
-0.00190524
-0.00211597
-0.00256842
-0.00305262
-0.00347772
-0.00386921
-0.00423861
-0.00448574
-0.00487082
-0.00523673
-0.00559734
-0.00596625
-0.00635471
-0.00447876
-0.00486612
-0.00523378
-0.00559581
-0.00596576
-0.0063553
-0.00447318
-0.00486201
-0.00523092
-0.00559398
-0.00596472
-0.00635478
-0.00446875
-0.00485851
-0.00522827
-0.00559202
-0.00596326
-0.00635348
-0.00446505
-0.00485547
-0.00522584
-0.00559007
-0.00596164
-0.00635189
-0.00446203
-0.00485292
-0.00522371
-0.00558828
-0.00596006
-0.00635031
-0.00445965
-0.00485087
-0.00522196
-0.00558675
-0.00595868
-0.0063489
-0.00455107
-0.00490706
-0.00525077
-0.00559198
-0.00593752
-0.00630022
-0.00454358
-0.00490212
-0.00524781
-0.00559061
-0.00593777
-0.00630186
-0.0045374
-0.00489771
-0.00524485
-0.00558885
-0.005937
-0.00630185
-0.00453247
-0.00489395
-0.00524211
-0.00558692
-0.00593566
-0.00630087
-0.00452833
-0.00489068
-0.00523958
-0.00558498
-0.00593413
-0.00629955
-0.00452495
-0.00488792
-0.00523737
-0.0055832
-0.00593262
-0.00629817
-0.00452229
-0.00488571
-0.00523554
-0.00558168
-0.00593129
-0.00629693
-0.00461653
-0.0049424
-0.00526062
-0.00557691
-0.00589807
-0.00622949
-0.00460911
-0.00493749
-0.0052577
-0.00557567
-0.0058983
-0.00623113
-0.00460298
-0.00493316
-0.00525485
-0.00557405
-0.00589772
-0.00623142
-0.00459799
-0.00492944
-0.00525219
-0.00557227
-0.00589663
-0.00623084
-0.00459376
-0.00492616
-0.00524973
-0.00557048
-0.00589534
-0.0062299
-0.00459029
-0.0049234
-0.00524758
-0.00556882
-0.00589405
-0.00622885
-0.00458755
-0.00492117
-0.0052458
-0.0055674
-0.00589289
-0.00622785
-0.00678014
-0.00726286
-0.00782792
-0.00852459
-0.00941195
-0.0102104
-0.0102223
-0.0067818
-0.00726605
-0.00783175
-0.00852376
-0.00943371
-0.0103666
-0.010465
-0.00678142
-0.00726525
-0.00782942
-0.00851589
-0.00941354
-0.0103364
-0.0104369
-0.00677984
-0.00726271
-0.00782487
-0.00850745
-0.00939907
-0.0103191
-0.0104221
-0.00677794
-0.00725999
-0.00782069
-0.00850106
-0.0093905
-0.010311
-0.0104167
-0.00677609
-0.00725756
-0.00781731
-0.00849643
-0.00938483
-0.0103057
-0.0104131
-0.00677449
-0.00725558
-0.00781478
-0.00849324
-0.00938118
-0.0103023
-0.0104108
-0.00669016
-0.00711965
-0.00760061
-0.0081645
-0.00885959
-0.00947992
-0.00954877
-0.00669329
-0.00712481
-0.007607
-0.00816631
-0.00886852
-0.00955097
-0.00965894
-0.00669376
-0.00712539
-0.00760682
-0.00816176
-0.00885472
-0.00953347
-0.00964893
-0.00669279
-0.00712396
-0.00760425
-0.00815677
-0.00884636
-0.0095254
-0.00964516
-0.0066914
-0.00712217
-0.00760165
-0.008153
-0.00884187
-0.00952277
-0.00964601
-0.00668995
-0.00712044
-0.00759943
-0.00815017
-0.00883882
-0.0095209
-0.00964641
-0.00668866
-0.00711896
-0.00759768
-0.00814816
-0.00883684
-0.00951971
-0.00964665
-0.00657734
-0.00694645
-0.00733777
-0.00775741
-0.00821098
-0.0085597
-0.00857777
-0.00658047
-0.00695137
-0.00734407
-0.00776254
-0.00822082
-0.00859053
-0.00860601
-0.00658148
-0.00695293
-0.00734576
-0.00776261
-0.00821814
-0.00859011
-0.00861095
-0.00658119
-0.00695268
-0.00734518
-0.00776111
-0.00821571
-0.0085896
-0.00861443
-0.00658041
-0.00695186
-0.00734413
-0.00775967
-0.00821433
-0.00859008
-0.00861778
-0.00657946
-0.00695088
-0.007343
-0.00775839
-0.00821325
-0.00859027
-0.00862
-0.00657854
-0.00694995
-0.00734201
-0.00775739
-0.0082125
-0.00859041
-0.00862152
0.000458732
-9.05683e-05
-0.00113372
-0.00221095
-0.00297355
-0.0035441
-0.00402908
0.000462267
-8.77634e-05
-0.00113153
-0.00220907
-0.00297189
-0.00354261
-0.00402774
0.000464063
-8.63188e-05
-0.00113038
-0.00220811
-0.00297104
-0.00354185
-0.00402706
0.000464065
-8.63171e-05
-0.00113038
-0.0022081
-0.00297104
-0.00354185
-0.00402706
0.000462273
-8.7758e-05
-0.00113152
-0.00220907
-0.00297189
-0.0035426
-0.00402773
0.000458741
-9.05597e-05
-0.00113372
-0.00221094
-0.00297355
-0.0035441
-0.00402907
-0.000681601
-0.00113813
-0.00194697
-0.00268612
-0.00324017
-0.00370793
-0.00413184
-0.000676946
-0.00113439
-0.00194404
-0.0026837
-0.00323811
-0.00370615
-0.0041303
-0.00067465
-0.00113253
-0.00194256
-0.00268249
-0.00323708
-0.00370526
-0.00412954
-0.000674648
-0.00113253
-0.00194256
-0.00268249
-0.00323707
-0.00370526
-0.00412954
-0.000676941
-0.00113438
-0.00194403
-0.0026837
-0.00323811
-0.00370615
-0.0041303
-0.000681594
-0.00113812
-0.00194697
-0.00268612
-0.00324017
-0.00370792
-0.00413183
-0.00189756
-0.00210977
-0.00256347
-0.00304852
-0.00347426
-0.00386629
-0.00423615
-0.0018926
-0.00210572
-0.00256021
-0.00304582
-0.00347199
-0.00386437
-0.00423454
-0.00189017
-0.00210372
-0.00255859
-0.00304447
-0.00347086
-0.00386342
-0.00423373
-0.00189017
-0.00210372
-0.00255859
-0.00304447
-0.00347086
-0.00386341
-0.00423373
-0.0018926
-0.00210572
-0.00256021
-0.00304582
-0.00347199
-0.00386437
-0.00423453
-0.00189755
-0.00210977
-0.00256347
-0.00304852
-0.00347426
-0.00386629
-0.00423615
-0.00445787
-0.00484932
-0.00522061
-0.00558555
-0.00595757
-0.00634779
-0.00445668
-0.00484828
-0.00521969
-0.00558473
-0.00595681
-0.00634702
-0.00445609
-0.00484776
-0.00521923
-0.00558432
-0.00595642
-0.00634663
-0.00445609
-0.00484776
-0.00521923
-0.00558431
-0.00595642
-0.00634662
-0.00445668
-0.00484828
-0.00521969
-0.00558473
-0.00595681
-0.00634701
-0.00445786
-0.00484931
-0.0052206
-0.00558555
-0.00595757
-0.00634778
-0.00452031
-0.00488405
-0.00523414
-0.00558048
-0.00593022
-0.00629592
-0.004519
-0.00488294
-0.0052332
-0.00557966
-0.00592949
-0.00629522
-0.00451835
-0.00488238
-0.00523272
-0.00557925
-0.00592911
-0.00629487
-0.00451835
-0.00488238
-0.00523272
-0.00557924
-0.00592911
-0.00629487
-0.004519
-0.00488293
-0.00523319
-0.00557966
-0.00592948
-0.00629522
-0.00452031
-0.00488404
-0.00523414
-0.00558047
-0.00593022
-0.00629591
-0.00458551
-0.0049195
-0.00524442
-0.00556628
-0.00589195
-0.00622703
-0.00458415
-0.00491837
-0.0052435
-0.00556551
-0.00589129
-0.00622645
-0.00458348
-0.00491781
-0.00524303
-0.00556512
-0.00589095
-0.00622616
-0.00458348
-0.00491781
-0.00524303
-0.00556511
-0.00589095
-0.00622615
-0.00458415
-0.00491837
-0.00524349
-0.0055655
-0.00589129
-0.00622645
-0.0045855
-0.00491949
-0.00524442
-0.00556627
-0.00589194
-0.00622703
-0.00677326
-0.00725412
-0.00781301
-0.00849117
-0.00937896
-0.0103004
-0.0104096
-0.00677242
-0.00725317
-0.00781191
-0.00848994
-0.00937771
-0.0102994
-0.010409
-0.006772
-0.0072527
-0.00781138
-0.00848936
-0.00937715
-0.0102989
-0.0104087
-0.006772
-0.0072527
-0.00781138
-0.00848936
-0.00937714
-0.0102989
-0.0104087
-0.00677242
-0.00725316
-0.0078119
-0.00848993
-0.0093777
-0.0102994
-0.010409
-0.00677325
-0.00725412
-0.007813
-0.00849116
-0.00937895
-0.0103004
-0.0104096
-0.00668763
-0.00711783
-0.00759643
-0.00814684
-0.00883564
-0.00951907
-0.00964693
-0.00668692
-0.00711709
-0.00759563
-0.00814604
-0.00883497
-0.00951875
-0.00964716
-0.00668656
-0.00711672
-0.00759525
-0.00814566
-0.00883466
-0.00951861
-0.00964728
-0.00668656
-0.00711671
-0.00759525
-0.00814566
-0.00883466
-0.00951861
-0.00964728
-0.00668692
-0.00711708
-0.00759563
-0.00814603
-0.00883496
-0.00951874
-0.00964715
-0.00668762
-0.00711783
-0.00759642
-0.00814683
-0.00883563
-0.00951906
-0.00964692
-0.00657777
-0.00694919
-0.00734126
-0.0077567
-0.00821205
-0.00859058
-0.00862259
-0.00657724
-0.00694867
-0.00734076
-0.00775627
-0.0082118
-0.00859072
-0.00862328
-0.00657696
-0.00694841
-0.00734052
-0.00775607
-0.00821169
-0.00859079
-0.00862362
-0.00657696
-0.00694841
-0.00734052
-0.00775607
-0.00821168
-0.00859079
-0.00862362
-0.00657723
-0.00694867
-0.00734076
-0.00775627
-0.00821179
-0.00859071
-0.00862328
-0.00657777
-0.00694918
-0.00734125
-0.00775669
-0.00821204
-0.00859057
-0.00862258
0.000453627
-9.4513e-05
-0.00113676
-0.00221359
-0.00297597
-0.00354632
-0.00403108
0.000447199
-9.92205e-05
-0.00114029
-0.00221681
-0.00297908
-0.00354927
-0.00403378
0.000439327
-0.000104486
-0.00114387
-0.00222035
-0.00298287
-0.00355303
-0.00403723
0.00043022
-0.000110297
-0.00114714
-0.00222405
-0.00298743
-0.00355774
-0.00404155
0.000431772
-0.00010621
-0.00114451
-0.00222673
-0.00299299
-0.00356368
-0.00404688
0.000441681
-8.08538e-05
-0.00112613
-0.00222703
-0.00300222
-0.00357286
-0.00405414
3.10306e-08
-0.000376414
-0.00118031
-0.00223726
-0.0030216
-0.0035894
-0.00406467
-0.000688725
-0.00114376
-0.00195133
-0.00268971
-0.00324327
-0.00371061
-0.00413415
-0.000698528
-0.00115131
-0.00195703
-0.00269446
-0.00324744
-0.00371426
-0.00413729
-0.000711649
-0.00116106
-0.00196406
-0.00270037
-0.00325279
-0.003719
-0.00414134
-0.000728615
-0.00117348
-0.00197251
-0.00270761
-0.00325957
-0.00372501
-0.00414642
-0.000741853
-0.00118213
-0.00197922
-0.00271573
-0.00326808
-0.00373255
-0.00415264
-0.000750289
-0.00118016
-0.00198072
-0.00272615
-0.00328101
-0.00374339
-0.00416093
-0.000915912
-0.00129254
-0.00201897
-0.00274837
-0.00330302
-0.00376001
-0.00417202
-0.00190523
-0.00211596
-0.00256841
-0.00305261
-0.00347771
-0.0038692
-0.0042386
-0.00191593
-0.00212448
-0.00257513
-0.00305817
-0.00348241
-0.00387318
-0.00424192
-0.00193029
-0.00213574
-0.00258382
-0.00306537
-0.00348854
-0.00387834
-0.0042462
-0.00194911
-0.00215038
-0.00259488
-0.00307452
-0.00349636
-0.00388488
-0.00425153
-0.00197122
-0.00216709
-0.00260755
-0.00308568
-0.00350616
-0.00389299
-0.00425798
-0.00200085
-0.00218855
-0.00262393
-0.00310123
-0.00352009
-0.00390404
-0.00426632
-0.00207042
-0.00225112
-0.00266262
-0.00312741
-0.00354113
-0.00391956
-0.0042771
-0.00445964
-0.00485086
-0.00522195
-0.00558674
-0.00595867
-0.0063489
-0.00446202
-0.00485291
-0.0052237
-0.00558827
-0.00596005
-0.0063503
-0.00446504
-0.00485546
-0.00522583
-0.00559006
-0.00596163
-0.00635188
-0.00446874
-0.0048585
-0.00522826
-0.00559201
-0.00596324
-0.00635346
-0.00447317
-0.004862
-0.00523091
-0.00559396
-0.0059647
-0.00635476
-0.00447875
-0.00486611
-0.00523376
-0.00559579
-0.00596574
-0.00635528
-0.00448573
-0.00487081
-0.00523671
-0.00559733
-0.00596623
-0.00635469
-0.00452228
-0.00488571
-0.00523554
-0.00558167
-0.00593128
-0.00629692
-0.00452494
-0.00488792
-0.00523736
-0.00558319
-0.00593261
-0.00629816
-0.00452832
-0.00489067
-0.00523957
-0.00558497
-0.00593411
-0.00629954
-0.00453245
-0.00489394
-0.0052421
-0.0055869
-0.00593564
-0.00630086
-0.00453739
-0.0048977
-0.00524484
-0.00558884
-0.00593698
-0.00630183
-0.00454356
-0.00490211
-0.00524779
-0.0055906
-0.00593775
-0.00630184
-0.00455106
-0.00490705
-0.00525075
-0.00559197
-0.00593751
-0.0063002
-0.00458754
-0.00492117
-0.00524579
-0.00556739
-0.00589288
-0.00622784
-0.00459028
-0.00492339
-0.00524757
-0.00556881
-0.00589404
-0.00622884
-0.00459375
-0.00492615
-0.00524972
-0.00557047
-0.00589533
-0.00622989
-0.00459798
-0.00492942
-0.00525218
-0.00557226
-0.00589662
-0.00623082
-0.00460297
-0.00493315
-0.00525484
-0.00557404
-0.0058977
-0.0062314
-0.0046091
-0.00493748
-0.00525769
-0.00557566
-0.00589829
-0.00623111
-0.00461652
-0.00494238
-0.00526061
-0.0055769
-0.00589806
-0.00622947
-0.00677448
-0.00725557
-0.00781477
-0.00849323
-0.00938116
-0.0103023
-0.0104108
-0.00677608
-0.00725755
-0.0078173
-0.00849642
-0.00938481
-0.0103056
-0.010413
-0.00677792
-0.00725998
-0.00782067
-0.00850104
-0.00939048
-0.010311
-0.0104167
-0.00677982
-0.00726269
-0.00782485
-0.00850743
-0.00939904
-0.0103191
-0.010422
-0.0067814
-0.00726523
-0.00782939
-0.00851586
-0.0094135
-0.0103363
-0.0104369
-0.00678178
-0.00726603
-0.00783172
-0.00852372
-0.00943366
-0.0103665
-0.010465
-0.00678012
-0.00726283
-0.00782789
-0.00852455
-0.0094119
-0.0102103
-0.0102222
-0.00668865
-0.00711895
-0.00759767
-0.00814815
-0.00883683
-0.00951969
-0.00964664
-0.00668994
-0.00712042
-0.00759941
-0.00815015
-0.0088388
-0.00952088
-0.00964639
-0.00669139
-0.00712215
-0.00760164
-0.00815298
-0.00884185
-0.00952274
-0.00964598
-0.00669277
-0.00712394
-0.00760423
-0.00815674
-0.00884633
-0.00952536
-0.00964512
-0.00669374
-0.00712536
-0.00760679
-0.00816173
-0.00885468
-0.00953342
-0.00964888
-0.00669327
-0.00712479
-0.00760698
-0.00816628
-0.00886848
-0.00955091
-0.00965888
-0.00669014
-0.00711963
-0.00760059
-0.00816446
-0.00885954
-0.00947986
-0.0095487
-0.00657853
-0.00694993
-0.007342
-0.00775738
-0.00821249
-0.0085904
-0.0086215
-0.00657945
-0.00695086
-0.00734298
-0.00775837
-0.00821323
-0.00859025
-0.00861998
-0.0065804
-0.00695185
-0.00734411
-0.00775965
-0.0082143
-0.00859005
-0.00861775
-0.00658117
-0.00695266
-0.00734516
-0.00776109
-0.00821569
-0.00858957
-0.00861439
-0.00658146
-0.00695291
-0.00734573
-0.00776258
-0.00821811
-0.00859006
-0.0086109
-0.00658045
-0.00695134
-0.00734404
-0.0077625
-0.00822078
-0.00859048
-0.00860596
-0.00657732
-0.00694643
-0.00733774
-0.00775737
-0.00821094
-0.00855964
-0.00857771
-0.00286409
-0.00291679
-0.00314476
-0.00345981
-0.00377758
-0.0040883
-0.00439314
-0.00281435
-0.00286549
-0.00311018
-0.00343709
-0.00376029
-0.00407542
-0.00438392
-0.00277977
-0.00283806
-0.00309054
-0.00342148
-0.00374746
-0.00406538
-0.00437635
-0.0027558
-0.0028193
-0.00307632
-0.00340986
-0.00373781
-0.0040576
-0.00437023
-0.00273711
-0.00280427
-0.00306461
-0.00340035
-0.00372994
-0.00405116
-0.00436506
-0.0027228
-0.0027927
-0.00305545
-0.00339284
-0.0037237
-0.004046
-0.00436086
-0.00271212
-0.00278399
-0.00304845
-0.00338706
-0.00371889
-0.004042
-0.00435756
-0.00341136
-0.00340749
-0.0035464
-0.00376633
-0.0040078
-0.00425855
-0.00451403
-0.00337486
-0.00337007
-0.00352072
-0.00374837
-0.00399396
-0.00424813
-0.00450643
-0.00334622
-0.00334653
-0.00350327
-0.00373461
-0.00398286
-0.00423945
-0.00449984
-0.00332524
-0.00332951
-0.00348994
-0.0037238
-0.00397402
-0.00423237
-0.00449429
-0.00330858
-0.00331572
-0.00347889
-0.00371478
-0.00396662
-0.00422637
-0.0044895
-0.00329555
-0.00330492
-0.00347011
-0.00370754
-0.00396065
-0.00422148
-0.00448554
-0.0032857
-0.0032967
-0.00346336
-0.00370194
-0.003956
-0.00421764
-0.0044824
-0.00383305
-0.00379978
-0.00388654
-0.00403964
-0.0042213
-0.00442115
-0.00463233
-0.00380841
-0.00377463
-0.00386836
-0.00402587
-0.0042104
-0.00441281
-0.00462614
-0.00378716
-0.0037565
-0.00385425
-0.00401449
-0.00420119
-0.00440556
-0.00462057
-0.00377027
-0.00374231
-0.00384278
-0.00400508
-0.0041935
-0.00439939
-0.00461571
-0.00375631
-0.00373046
-0.00383304
-0.00399705
-0.00418689
-0.00439402
-0.00461143
-0.0037451
-0.00372095
-0.00382514
-0.00399047
-0.00418145
-0.00438956
-0.00460783
-0.00373645
-0.00371359
-0.00381898
-0.00398531
-0.00417715
-0.00438602
-0.00460494
-0.0041637
-0.00412166
-0.0041712
-0.00427737
-0.00441348
-0.0045712
-0.00474364
-0.00414837
-0.00410385
-0.00415811
-0.00426704
-0.00440508
-0.00456466
-0.00473869
-0.00413315
-0.00409026
-0.00414714
-0.00425799
-0.00439766
-0.00455874
-0.00473409
-0.00412006
-0.00407893
-0.00413774
-0.00425017
-0.00439122
-0.00455353
-0.00472996
-0.0041088
-0.00406916
-0.00412954
-0.00424331
-0.00438554
-0.00454889
-0.00472624
-0.0040995
-0.00406111
-0.00412273
-0.00423758
-0.00438076
-0.00454496
-0.00472306
-0.00409217
-0.00405476
-0.00411734
-0.00423302
-0.00437694
-0.0045418
-0.00472048
-0.00443082
-0.00438336
-0.00440843
-0.00448151
-0.0045828
-0.00470609
-0.00484533
-0.00442168
-0.0043708
-0.00439906
-0.00447388
-0.00457641
-0.004701
-0.00484141
-0.00441101
-0.00436084
-0.00439079
-0.00446686
-0.00457055
-0.00469626
-0.00483768
-0.00440117
-0.00435211
-0.00438336
-0.00446057
-0.0045653
-0.00469197
-0.00483424
-0.00439237
-0.00434431
-0.0043767
-0.00445492
-0.00456056
-0.00468807
-0.0048311
-0.00438488
-0.00433772
-0.00437104
-0.0044501
-0.00455651
-0.00468471
-0.00482836
-0.00437885
-0.00433243
-0.00436648
-0.0044462
-0.00455322
-0.00468197
-0.00482612
-0.00464742
-0.00459745
-0.00460599
-0.00465511
-0.0047296
-0.00482495
-0.00493614
-0.00464232
-0.00458865
-0.00459934
-0.00464953
-0.00472478
-0.00482103
-0.00493307
-0.00463501
-0.00458149
-0.00459323
-0.0046442
-0.00472024
-0.0048173
-0.00493009
-0.00462782
-0.00457493
-0.00458752
-0.00463927
-0.00471605
-0.00481384
-0.00492729
-0.00462113
-0.00456888
-0.00458226
-0.00463473
-0.0047122
-0.00481063
-0.00492468
-0.00461527
-0.00456364
-0.00457768
-0.00463078
-0.00470884
-0.00480783
-0.00492238
-0.00461044
-0.00455934
-0.00457393
-0.00462754
-0.00470608
-0.00480551
-0.00492048
-0.00469092
-0.00498254
-0.00527038
-0.00555736
-0.00584685
-0.00614147
-0.00468446
-0.0049782
-0.00526775
-0.00555619
-0.00584697
-0.00614284
-0.00467889
-0.00497425
-0.00526515
-0.00555473
-0.0058465
-0.00614325
-0.0046742
-0.00497078
-0.0052627
-0.00555314
-0.00584562
-0.00614296
-0.00467015
-0.00496768
-0.00526042
-0.00555153
-0.00584457
-0.00614234
-0.00466678
-0.00496504
-0.0052584
-0.00555004
-0.00584349
-0.00614159
-0.0046641
-0.0049629
-0.00525672
-0.00554875
-0.0058425
-0.00614083
-0.00477037
-0.00502599
-0.00528083
-0.00553553
-0.00579098
-0.00604758
-0.00476496
-0.0050223
-0.00527855
-0.00553448
-0.00579105
-0.00604873
-0.00476008
-0.00501883
-0.00527626
-0.00553321
-0.00579067
-0.00604918
-0.00475584
-0.00501569
-0.00527407
-0.00553181
-0.00578997
-0.00604909
-0.0047521
-0.00501285
-0.005272
-0.0055304
-0.00578912
-0.00604872
-0.00474895
-0.00501041
-0.00527016
-0.00552908
-0.00578823
-0.0060482
-0.00474642
-0.00500841
-0.00526862
-0.00552793
-0.00578741
-0.00604765
-0.0048496
-0.0050699
-0.00529155
-0.00551357
-0.00573514
-0.00595506
-0.00484512
-0.0050668
-0.00528962
-0.00551266
-0.00573517
-0.00595602
-0.00484095
-0.00506382
-0.00528764
-0.00551155
-0.00573486
-0.00595645
-0.00483723
-0.00506106
-0.00528571
-0.00551035
-0.0057343
-0.00595647
-0.00483388
-0.00505853
-0.00528388
-0.00550913
-0.00573361
-0.00595626
-0.00483103
-0.00505632
-0.00528224
-0.00550798
-0.00573289
-0.00595592
-0.00482871
-0.00505451
-0.00528086
-0.00550698
-0.00573221
-0.00595553
-0.00492527
-0.0051123
-0.0053021
-0.0054926
-0.00568188
-0.00586772
-0.00492162
-0.00510975
-0.00530048
-0.00549182
-0.00568188
-0.00586849
-0.00491815
-0.00510724
-0.0052988
-0.00549087
-0.00568161
-0.00586886
-0.00491496
-0.00510487
-0.00529715
-0.00548985
-0.00568115
-0.00586893
-0.00491205
-0.00510266
-0.00529556
-0.0054888
-0.0056806
-0.00586881
-0.00490953
-0.00510072
-0.00529412
-0.00548781
-0.00568001
-0.00586859
-0.00490746
-0.0050991
-0.0052929
-0.00548695
-0.00567945
-0.00586832
-0.00499526
-0.00515191
-0.00531213
-0.00547327
-0.00563276
-0.00578781
-0.00499233
-0.00514983
-0.0053108
-0.00547261
-0.00563273
-0.0057884
-0.00498948
-0.00514775
-0.0053094
-0.00547181
-0.0056325
-0.0057887
-0.00498681
-0.00514575
-0.00530799
-0.00547095
-0.00563211
-0.00578877
-0.00498433
-0.00514386
-0.00530664
-0.00547006
-0.00563165
-0.00578871
-0.00498216
-0.00514219
-0.0053054
-0.00546922
-0.00563117
-0.00578855
-0.00498036
-0.00514078
-0.00530435
-0.00546848
-0.00563071
-0.00578836
-0.00505843
-0.00518795
-0.00532143
-0.00545593
-0.00558857
-0.00571637
-0.00505611
-0.00518628
-0.00532034
-0.00545537
-0.00558853
-0.00571682
-0.0050538
-0.00518458
-0.00531918
-0.0054547
-0.00558832
-0.00571704
-0.0050516
-0.00518292
-0.00531801
-0.00545397
-0.00558799
-0.00571709
-0.00504953
-0.00518134
-0.00531687
-0.00545323
-0.00558761
-0.00571705
-0.00504769
-0.00517992
-0.00531582
-0.00545251
-0.00558721
-0.00571693
-0.00504616
-0.00517871
-0.00531492
-0.00545189
-0.00558683
-0.00571678
-0.00644329
-0.00675232
-0.00706465
-0.00737587
-0.00767249
-0.0078566
-0.00782617
-0.006446
-0.00675661
-0.0070705
-0.00738293
-0.00768588
-0.00788274
-0.00784237
-0.00644723
-0.00675865
-0.00707325
-0.00738589
-0.00768974
-0.00789116
-0.00785442
-0.00644741
-0.00675921
-0.00707407
-0.00738683
-0.0076912
-0.00789505
-0.00786153
-0.00644713
-0.00675915
-0.00707419
-0.00738716
-0.00769216
-0.00789775
-0.00786642
-0.0064466
-0.00675879
-0.00707397
-0.00738714
-0.00769267
-0.00789948
-0.00786978
-0.00644602
-0.00675834
-0.00707364
-0.00738701
-0.00769295
-0.00790062
-0.0078721
-0.00630474
-0.00655989
-0.006807
-0.00703806
-0.0072389
-0.0073452
-0.00729278
-0.00630708
-0.00656362
-0.00681228
-0.00704493
-0.0072503
-0.00736549
-0.00730694
-0.00630834
-0.00656574
-0.00681529
-0.00704873
-0.00725557
-0.00737451
-0.00731836
-0.00630881
-0.00656673
-0.0068168
-0.00705077
-0.00725853
-0.00737948
-0.00732557
-0.00630885
-0.00656716
-0.00681761
-0.00705206
-0.00726062
-0.007383
-0.0073307
-0.00630865
-0.00656724
-0.00681799
-0.00705282
-0.007262
-0.00738542
-0.00733439
-0.00630834
-0.00656714
-0.00681813
-0.00705326
-0.0072629
-0.00738707
-0.00733698
-0.00617117
-0.00637959
-0.0065737
-0.00674484
-0.00688174
-0.00694487
-0.00688089
-0.00617313
-0.0063827
-0.00657811
-0.0067505
-0.00688994
-0.00695824
-0.00689071
-0.0061743
-0.00638465
-0.00658089
-0.0067541
-0.00689471
-0.00696543
-0.00689921
-0.00617487
-0.00638578
-0.00658258
-0.00675641
-0.0068979
-0.00697008
-0.00690529
-0.0061751
-0.00638644
-0.0065837
-0.00675806
-0.00690029
-0.00697359
-0.00690994
-0.0061751
-0.00638678
-0.00658439
-0.00675918
-0.006902
-0.00697613
-0.00691344
-0.00617498
-0.00638691
-0.0065848
-0.00675992
-0.00690318
-0.00697793
-0.00691599
-0.00604711
-0.00621568
-0.00636707
-0.00649355
-0.00658646
-0.00661842
-0.00655613
-0.00604869
-0.00621816
-0.00637054
-0.00649787
-0.00659237
-0.00662783
-0.00656116
-0.00604969
-0.00621983
-0.00637289
-0.0065009
-0.00659623
-0.00663319
-0.00656692
-0.00605026
-0.00622091
-0.0063745
-0.00650306
-0.00659909
-0.00663705
-0.00657163
-0.00605057
-0.00622163
-0.00637566
-0.00650472
-0.00660136
-0.00664013
-0.00657548
-0.00605068
-0.00622208
-0.00637647
-0.00650592
-0.00660306
-0.00664248
-0.00657852
-0.00605068
-0.00622233
-0.006377
-0.00650677
-0.00660429
-0.00664421
-0.00658081
-0.00593505
-0.00607011
-0.00618728
-0.00628016
-0.00634253
-0.00635442
-0.00629299
-0.00593628
-0.00607203
-0.00618992
-0.00628334
-0.00634669
-0.00636095
-0.00629485
-0.0059371
-0.00607339
-0.00619182
-0.00628572
-0.00634959
-0.00636476
-0.00629853
-0.00593761
-0.00607433
-0.0061932
-0.00628754
-0.00635191
-0.00636772
-0.00630194
-0.00593792
-0.00607502
-0.00619426
-0.00628901
-0.00635384
-0.00637022
-0.00630492
-0.00593807
-0.00607548
-0.00619504
-0.00629013
-0.00635536
-0.00637221
-0.00630739
-0.00593812
-0.00607577
-0.00619559
-0.00629095
-0.00635649
-0.00637372
-0.00630932
-0.00583589
-0.00594305
-0.00603288
-0.00610027
-0.00614083
-0.00613941
-0.00607934
-0.00583683
-0.00594451
-0.00603485
-0.00610253
-0.00614367
-0.00614391
-0.0060795
-0.00583747
-0.00594557
-0.00603631
-0.00610431
-0.00614574
-0.0061465
-0.0060817
-0.00583789
-0.00594633
-0.00603742
-0.00610574
-0.00614749
-0.00614863
-0.00608402
-0.00583816
-0.00594692
-0.00603831
-0.00610694
-0.00614902
-0.00615053
-0.00608619
-0.00583832
-0.00594734
-0.00603899
-0.00610789
-0.00615026
-0.00615211
-0.00608808
-0.00583839
-0.00594762
-0.00603949
-0.00610861
-0.00615123
-0.00615335
-0.00608961
-0.0027045
-0.00277772
-0.00304335
-0.00338283
-0.00371536
-0.00403906
-0.00435512
-0.00269958
-0.00277364
-0.00304001
-0.00338005
-0.00371304
-0.00403712
-0.00435351
-0.00269717
-0.00277163
-0.00303835
-0.00337868
-0.00371189
-0.00403615
-0.0043527
-0.00269717
-0.00277163
-0.00303835
-0.00337867
-0.00371189
-0.00403615
-0.0043527
-0.00269958
-0.00277364
-0.00304
-0.00338005
-0.00371304
-0.00403712
-0.0043535
-0.00270449
-0.00277771
-0.00304334
-0.00338283
-0.00371536
-0.00403905
-0.00435512
-0.00327861
-0.00329076
-0.00345843
-0.00369782
-0.00395257
-0.00421479
-0.00448006
-0.00327402
-0.00328689
-0.0034552
-0.00369512
-0.00395031
-0.00421291
-0.00447851
-0.00327177
-0.00328498
-0.00345361
-0.00369378
-0.00394919
-0.00421198
-0.00447773
-0.00327177
-0.00328498
-0.00345361
-0.00369378
-0.00394919
-0.00421197
-0.00447773
-0.00327402
-0.00328689
-0.0034552
-0.00369512
-0.00395031
-0.00421291
-0.00447851
-0.00327861
-0.00329076
-0.00345842
-0.00369782
-0.00395256
-0.00421479
-0.00448006
-0.00373015
-0.00370822
-0.00381446
-0.0039815
-0.00417396
-0.00438337
-0.00460277
-0.00372604
-0.0037047
-0.00381148
-0.00397898
-0.00417185
-0.00438162
-0.00460132
-0.00372401
-0.00370296
-0.00381
-0.00397773
-0.0041708
-0.00438074
-0.00460059
-0.00372401
-0.00370296
-0.00381
-0.00397773
-0.0041708
-0.00438074
-0.00460059
-0.00372604
-0.0037047
-0.00381147
-0.00397898
-0.00417185
-0.00438161
-0.00460131
-0.00373015
-0.00370822
-0.00381445
-0.00398149
-0.00417396
-0.00438337
-0.00460276
-0.00408675
-0.00405007
-0.00411334
-0.00422962
-0.00437408
-0.00453942
-0.00471853
-0.00408318
-0.00404697
-0.00411068
-0.00422736
-0.00437218
-0.00453783
-0.00471722
-0.00408141
-0.00404543
-0.00410936
-0.00422623
-0.00437122
-0.00453703
-0.00471656
-0.00408141
-0.00404543
-0.00410936
-0.00422623
-0.00437122
-0.00453703
-0.00471656
-0.00408318
-0.00404697
-0.00411068
-0.00422736
-0.00437217
-0.00453783
-0.00471721
-0.00408675
-0.00405007
-0.00411333
-0.00422962
-0.00437408
-0.00453942
-0.00471852
-0.00437433
-0.00432845
-0.00436305
-0.00444326
-0.00455072
-0.00467989
-0.00482441
-0.00437132
-0.00432581
-0.00436076
-0.00444129
-0.00454906
-0.00467849
-0.00482325
-0.00436982
-0.00432449
-0.00435961
-0.0044403
-0.00454822
-0.00467779
-0.00482267
-0.00436981
-0.00432449
-0.00435961
-0.0044403
-0.00454822
-0.00467779
-0.00482267
-0.00437132
-0.00432581
-0.00436076
-0.00444129
-0.00454905
-0.00467849
-0.00482325
-0.00437433
-0.00432845
-0.00436304
-0.00444325
-0.00455072
-0.00467988
-0.0048244
-0.00460677
-0.00455608
-0.00457108
-0.00462507
-0.00470397
-0.00480374
-0.00491901
-0.00460429
-0.00455388
-0.00456916
-0.0046234
-0.00470255
-0.00480254
-0.00491801
-0.00460305
-0.00455278
-0.00456819
-0.00462257
-0.00470183
-0.00480193
-0.00491751
-0.00460305
-0.00455278
-0.00456819
-0.00462257
-0.00470183
-0.00480193
-0.00491751
-0.00460429
-0.00455388
-0.00456916
-0.0046234
-0.00470255
-0.00480253
-0.00491801
-0.00460676
-0.00455607
-0.00457108
-0.00462507
-0.00470397
-0.00480373
-0.004919
-0.0064455
-0.00675792
-0.00707333
-0.00738687
-0.00769314
-0.00790139
-0.00787367
-0.00644513
-0.00675762
-0.0070731
-0.00738678
-0.00769325
-0.00790188
-0.00787466
-0.00644493
-0.00675745
-0.00707299
-0.00738673
-0.00769331
-0.00790212
-0.00787513
-0.00644493
-0.00675745
-0.00707298
-0.00738672
-0.00769331
-0.00790212
-0.00787513
-0.00644512
-0.00675761
-0.0070731
-0.00738677
-0.00769325
-0.00790188
-0.00787465
-0.0064455
-0.00675791
-0.00707332
-0.00738687
-0.00769313
-0.00790138
-0.00787366
-0.00630803
-0.00656699
-0.00681815
-0.00705352
-0.00726349
-0.00738818
-0.00733876
-0.00630779
-0.00656686
-0.00681813
-0.00705366
-0.00726386
-0.00738887
-0.00733987
-0.00630766
-0.00656678
-0.00681812
-0.00705372
-0.00726403
-0.0073892
-0.00734041
-0.00630765
-0.00656678
-0.00681811
-0.00705372
-0.00726403
-0.0073892
-0.00734041
-0.00630778
-0.00656685
-0.00681813
-0.00705365
-0.00726385
-0.00738886
-0.00733987
-0.00630802
-0.00656698
-0.00681814
-0.00705351
-0.00726349
-0.00738817
-0.00733875
-0.00617482
-0.00638694
-0.00658503
-0.0067604
-0.00690398
-0.00697917
-0.00691777
-0.00617468
-0.00638692
-0.00658515
-0.00676069
-0.00690448
-0.00697995
-0.0069189
-0.00617461
-0.00638691
-0.0065852
-0.00676082
-0.00690471
-0.00698033
-0.00691944
-0.0061746
-0.0063869
-0.0065852
-0.00676082
-0.00690471
-0.00698033
-0.00691944
-0.00617468
-0.00638692
-0.00658515
-0.00676068
-0.00690447
-0.00697995
-0.00691889
-0.00617481
-0.00638693
-0.00658502
-0.00676039
-0.00690397
-0.00697916
-0.00691776
-0.00605061
-0.00622246
-0.00637733
-0.00650734
-0.00660515
-0.00664543
-0.00658245
-0.00605055
-0.00622253
-0.00637753
-0.00650769
-0.00660569
-0.0066462
-0.0065835
-0.00605051
-0.00622255
-0.00637762
-0.00650786
-0.00660595
-0.00664658
-0.00658402
-0.0060505
-0.00622254
-0.00637762
-0.00650786
-0.00660595
-0.00664658
-0.00658402
-0.00605054
-0.00622252
-0.00637752
-0.00650769
-0.00660568
-0.0066462
-0.0065835
-0.00605061
-0.00622246
-0.00637732
-0.00650733
-0.00660514
-0.00664542
-0.00658244
-0.00593812
-0.00607595
-0.00619595
-0.00629153
-0.0063573
-0.00637482
-0.00631073