/*--------------------------------*- C++ -*----------------------------------*\
  =========                 |
  \\      /  F ield         | OpenFOAM: The Open Source CFD Toolbox
   \\    /   O peration     | Website:  https://openfoam.org
    \\  /    A nd           | Version:  7
     \\/     M anipulation  |
\*---------------------------------------------------------------------------*/
FoamFile
{
    version     2.0;
    format      ascii;
    class       volVectorField;
    location    "1.75";
    object      U;
}
// * * * * * * * * * * * * * * * * * * * * * * * * * * * * * * * * * * * * * //

dimensions      [0 1 -1 0 0 0 0];

internalField   nonuniform List<vector> 
7784
(
(0.937957 -0.000142897 -0.000439828)
(0.937889 -0.000115099 -0.000344539)
(0.937981 -5.70788e-05 -0.000140678)
(0.938152 -2.52774e-05 -4.63391e-05)
(0.938214 -1.35731e-05 -1.80243e-05)
(0.938233 -8.04116e-06 -7.37698e-06)
(0.938246 -4.79391e-06 -3.06156e-06)
(0.937992 -0.000144872 -0.000375164)
(0.937954 -0.000116073 -0.00029463)
(0.938041 -6.04137e-05 -0.000121503)
(0.938179 -2.99413e-05 -4.10769e-05)
(0.938224 -1.78197e-05 -1.61395e-05)
(0.938238 -1.12456e-05 -6.49764e-06)
(0.938249 -7.04794e-06 -2.67184e-06)
(0.938009 -7.13117e-05 -0.000350505)
(0.93798 -5.90761e-05 -0.000275494)
(0.938066 -3.86046e-05 -0.000112423)
(0.938193 -2.44803e-05 -3.75514e-05)
(0.938231 -1.63219e-05 -1.45851e-05)
(0.938243 -1.09628e-05 -5.74277e-06)
(0.938252 -7.30115e-06 -2.30826e-06)
(0.938016 -4.28402e-05 -0.00034156)
(0.937992 -3.70561e-05 -0.000268213)
(0.938078 -2.75258e-05 -0.000108241)
(0.938201 -1.95588e-05 -3.54876e-05)
(0.938237 -1.3889e-05 -1.35481e-05)
(0.938247 -9.80026e-06 -5.19913e-06)
(0.938255 -6.82725e-06 -2.01836e-06)
(0.938021 -2.88813e-05 -0.000337827)
(0.937998 -2.55711e-05 -0.000265052)
(0.938084 -2.02571e-05 -0.000106181)
(0.938207 -1.5321e-05 -3.43187e-05)
(0.938241 -1.14021e-05 -1.28959e-05)
(0.93825 -8.365e-06 -4.82523e-06)
(0.938258 -6.02364e-06 -1.80089e-06)
(0.938023 -1.97692e-05 -0.000336182)
(0.938002 -1.77941e-05 -0.000263619)
(0.938089 -1.47147e-05 -0.000105154)
(0.938211 -1.16476e-05 -3.36633e-05)
(0.938244 -8.99537e-06 -1.24907e-05)
(0.938252 -6.80242e-06 -4.5728e-06)
(0.938259 -5.02463e-06 -1.64336e-06)
(0.938024 -1.34614e-05 -0.000335421)
(0.938004 -1.22774e-05 -0.000262933)
(0.938091 -1.04431e-05 -0.000104621)
(0.938213 -8.52334e-06 -3.32879e-05)
(0.938246 -6.75842e-06 -1.22383e-05)
(0.938254 -5.22621e-06 -4.40452e-06)
(0.938261 -3.93462e-06 -1.53219e-06)
(0.283441 -0.000125346 -0.000783979)
(0.283335 -0.000102463 -0.000600589)
(0.283406 -5.86115e-05 -0.000265807)
(0.283563 -3.06601e-05 -0.000117147)
(0.283649 -1.77177e-05 -6.40898e-05)
(0.2837 -1.07454e-05 -3.70498e-05)
(0.283738 -6.55909e-06 -2.22936e-05)
(0.283473 -0.000135466 -0.000676561)
(0.283385 -0.00011074 -0.000520374)
(0.283452 -6.68935e-05 -0.000234901)
(0.283587 -3.84782e-05 -0.000107854)
(0.28366 -2.40341e-05 -6.02586e-05)
(0.283706 -1.53626e-05 -3.51799e-05)
(0.283741 -9.78093e-06 -2.14467e-05)
(0.283492 -8.81859e-05 -0.000630789)
(0.283413 -7.39834e-05 -0.000485839)
(0.283478 -5.16778e-05 -0.000218169)
(0.283604 -3.46281e-05 -0.000100623)
(0.28367 -2.34952e-05 -5.6674e-05)
(0.283713 -1.58699e-05 -3.33175e-05)
(0.283746 -1.06083e-05 -2.0496e-05)
(0.283503 -6.08117e-05 -0.000611533)
(0.283428 -5.25876e-05 -0.000470492)
(0.283494 -3.99741e-05 -0.000209152)
(0.283616 -2.90145e-05 -9.5802e-05)
(0.283679 -2.07811e-05 -5.40217e-05)
(0.283719 -1.46791e-05 -3.18311e-05)
(0.28375 -1.01986e-05 -1.96608e-05)
(0.283509 -4.33916e-05 -0.00060217)
(0.283437 -3.82953e-05 -0.000462735)
(0.283503 -3.06056e-05 -0.000204042)
(0.283624 -2.33709e-05 -9.27327e-05)
(0.283685 -1.74502e-05 -5.21839e-05)
(0.283724 -1.27744e-05 -3.07213e-05)
(0.283754 -9.14759e-06 -1.8991e-05)
(0.283513 -3.06825e-05 -0.000597443)
(0.283443 -2.75155e-05 -0.00045871)
(0.28351 -2.27967e-05 -0.000201159)
(0.28363 -1.80894e-05 -9.08264e-05)
(0.28369 -1.39616e-05 -5.09471e-05)
(0.283728 -1.05144e-05 -2.99232e-05)
(0.283757 -7.71199e-06 -1.84809e-05)
(0.283515 -2.12621e-05 -0.000594974)
(0.283446 -1.93115e-05 -0.000456546)
(0.283513 -1.64048e-05 -0.000199502)
(0.283633 -1.33757e-05 -8.96441e-05)
(0.283693 -1.05792e-05 -5.01289e-05)
(0.283731 -8.13958e-06 -2.93664e-05)
(0.283759 -6.08051e-06 -1.81083e-05)
(0.0634641 -6.77039e-05 -0.00063291)
(0.0633445 -5.88969e-05 -0.000508143)
(0.0633435 -3.93831e-05 -0.000301694)
(0.0634204 -2.38712e-05 -0.000185486)
(0.0634785 -1.4963e-05 -0.000121471)
(0.0635216 -9.55569e-06 -8.00948e-05)
(0.0635548 -6.09354e-06 -5.31078e-05)
(0.0634748 -8.14051e-05 -0.000570485)
(0.0633638 -7.03858e-05 -0.000461278)
(0.0633649 -4.8852e-05 -0.00028008)
(0.0634345 -3.15855e-05 -0.000176701)
(0.0634866 -2.09018e-05 -0.000117164)
(0.0635267 -1.38882e-05 -7.7866e-05)
(0.0635581 -9.14389e-06 -5.19985e-05)
(0.0634848 -6.60539e-05 -0.000535767)
(0.0633793 -5.70449e-05 -0.000434556)
(0.0633813 -4.26608e-05 -0.000265016)
(0.0634468 -3.02394e-05 -0.000168733)
(0.063495 -2.12351e-05 -0.000112702)
(0.0635326 -1.47291e-05 -7.53662e-05)
(0.0635622 -1.00569e-05 -5.06172e-05)
(0.0634918 -5.10358e-05 -0.000517015)
(0.0633898 -4.47176e-05 -0.000419369)
(0.0633925 -3.52386e-05 -0.000255183)
(0.0634561 -2.64345e-05 -0.000162781)
(0.0635021 -1.9386e-05 -0.0001091)
(0.0635378 -1.39448e-05 -7.3204e-05)
(0.0635661 -9.82201e-06 -4.93315e-05)
(0.0634964 -3.87253e-05 -0.000506067)
(0.0633968 -3.44416e-05 -0.00041022)
(0.0634002 -2.8148e-05 -0.00024877)
(0.063463 -2.1967e-05 -0.000158582)
(0.0635077 -1.66709e-05 -0.000106394)
(0.0635422 -1.23556e-05 -7.14821e-05)
(0.0635695 -8.92767e-06 -4.82502e-05)
(0.0634994 -2.85994e-05 -0.000499706)
(0.0634014 -2.57627e-05 -0.000404775)
(0.0634054 -2.16348e-05 -0.00024471)
(0.0634678 -1.74034e-05 -0.000155739)
(0.0635119 -1.35762e-05 -0.000104452)
(0.0635457 -1.03087e-05 -7.01815e-05)
(0.0635723 -7.60501e-06 -4.73955e-05)
(0.0635014 -2.04066e-05 -0.000495991)
(0.0634044 -1.85738e-05 -0.00040152)
(0.0634089 -1.5906e-05 -0.000242162)
(0.0634712 -1.30808e-05 -0.000153856)
(0.0635149 -1.04186e-05 -0.000103104)
(0.0635483 -8.05984e-06 -6.92405e-05)
(0.0635744 -6.04289e-06 -4.67542e-05)
(0.938255 -2.89799e-06 -1.58564e-06)
(0.938261 -1.72891e-06 -1.15748e-06)
(0.938265 -9.23733e-07 -1.12298e-06)
(0.938267 -2.89142e-07 -1.29575e-06)
(0.938268 3.057e-07 -1.61397e-06)
(0.938268 9.89504e-07 -1.93004e-06)
(0.938257 -4.43089e-06 -1.40997e-06)
(0.938262 -2.72156e-06 -1.07109e-06)
(0.938265 -1.49718e-06 -1.0808e-06)
(0.938268 -5.14304e-07 -1.28052e-06)
(0.938269 4.00467e-07 -1.61588e-06)
(0.938269 1.41392e-06 -1.96758e-06)
(0.938259 -4.80795e-06 -1.23082e-06)
(0.938263 -3.04888e-06 -9.80071e-07)
(0.938267 -1.72565e-06 -1.03708e-06)
(0.938269 -6.36278e-07 -1.2675e-06)
(0.93827 3.77378e-07 -1.6307e-06)
(0.93827 1.45931e-06 -2.02197e-06)
(0.938261 -4.65689e-06 -1.0738e-06)
(0.938265 -3.03412e-06 -8.95089e-07)
(0.938268 -1.7628e-06 -9.9476e-07)
(0.93827 -6.92086e-07 -1.25482e-06)
(0.938271 3.04454e-07 -1.64623e-06)
(0.938272 1.34001e-06 -2.07215e-06)
(0.938263 -4.22029e-06 -9.47045e-07)
(0.938266 -2.81046e-06 -8.22584e-07)
(0.938269 -1.66857e-06 -9.56932e-07)
(0.938271 -6.87786e-07 -1.24249e-06)
(0.938272 2.26589e-07 -1.65815e-06)
(0.938273 1.15966e-06 -2.1112e-06)
(0.938264 -3.5951e-06 -8.49635e-07)
(0.938268 -2.43663e-06 -7.64148e-07)
(0.93827 -1.47222e-06 -9.25255e-07)
(0.938272 -6.30197e-07 -1.23135e-06)
(0.938273 1.5671e-07 -1.66638e-06)
(0.938273 9.4966e-07 -2.13998e-06)
(0.938265 -2.86057e-06 -7.77623e-07)
(0.938269 -1.96538e-06 -7.19326e-07)
(0.938271 -1.20403e-06 -9.00103e-07)
(0.938272 -5.30481e-07 -1.22185e-06)
(0.938273 1.00589e-07 -1.67167e-06)
(0.938274 7.30803e-07 -2.16037e-06)
(0.283763 -4.01945e-06 -1.4083e-05)
(0.283779 -2.38589e-06 -8.90481e-06)
(0.283788 -1.22395e-06 -5.17759e-06)
(0.283791 -2.75992e-07 -2.1323e-06)
(0.283789 6.55102e-07 8.28309e-07)
(0.28378 1.74909e-06 4.34444e-06)
(0.283765 -6.19224e-06 -1.36963e-05)
(0.283781 -3.76837e-06 -8.7194e-06)
(0.28379 -1.98577e-06 -5.09313e-06)
(0.283792 -5.10917e-07 -2.11039e-06)
(0.28379 9.1848e-07 7.91089e-07)
(0.283781 2.54382e-06 4.20596e-06)
(0.283769 -6.96625e-06 -1.3204e-05)
(0.283783 -4.35191e-06 -8.46359e-06)
(0.283791 -2.34936e-06 -4.97304e-06)
(0.283794 -6.59089e-07 -2.0844e-06)
(0.283791 9.6339e-07 7.2522e-07)
(0.283783 2.75445e-06 4.00946e-06)
(0.283772 -6.90224e-06 -1.27334e-05)
(0.283785 -4.41436e-06 -8.20377e-06)
(0.283793 -2.43872e-06 -4.84578e-06)
(0.283796 -7.39672e-07 -2.05495e-06)
(0.283793 8.8466e-07 6.5969e-07)
(0.283785 2.6301e-06 3.82231e-06)
(0.283774 -6.3437e-06 -1.23324e-05)
(0.283788 -4.13842e-06 -7.9718e-06)
(0.283795 -2.33264e-06 -4.72747e-06)
(0.283797 -7.53866e-07 -2.02412e-06)
(0.283795 7.5282e-07 6.06318e-07)
(0.283787 2.33764e-06 3.66871e-06)
(0.283777 -5.45449e-06 -1.2012e-05)
(0.283789 -3.61708e-06 -7.77906e-06)
(0.283797 -2.07364e-06 -4.62573e-06)
(0.283799 -7.05164e-07 -1.99481e-06)
(0.283796 6.00039e-07 5.6643e-07)
(0.283789 1.95018e-06 3.55041e-06)
(0.283779 -4.36685e-06 -1.1769e-05)
(0.283791 -2.93366e-06 -7.62828e-06)
(0.283798 -1.70503e-06 -4.54382e-06)
(0.2838 -6.03339e-07 -1.96926e-06)
(0.283797 4.47338e-07 5.38336e-07)
(0.28379 1.52058e-06 3.46379e-06)
(0.0635783 -3.84701e-06 -3.47972e-05)
(0.0635935 -2.31642e-06 -2.13406e-05)
(0.0636016 -1.18136e-06 -1.05082e-05)
(0.0636033 -2.28776e-07 -8.12247e-07)
(0.0635986 7.097e-07 9.01547e-06)
(0.063587 1.79982e-06 2.02641e-05)
(0.0635805 -5.92039e-06 -3.42406e-05)
(0.063595 -3.64013e-06 -2.10606e-05)
(0.0636028 -1.90526e-06 -1.0382e-05)
(0.0636043 -4.3516e-07 -7.90976e-07)
(0.0635997 9.97108e-07 8.9273e-06)
(0.0635883 2.61342e-06 2.00176e-05)
(0.0635833 -6.69648e-06 -3.34768e-05)
(0.0635971 -4.20609e-06 -2.06479e-05)
(0.0636044 -2.24933e-06 -1.0187e-05)
(0.0636058 -5.66112e-07 -7.5669e-07)
(0.0636012 1.06384e-06 8.80328e-06)
(0.0635902 2.85568e-06 1.96817e-05)
(0.0635862 -6.70466e-06 -3.27201e-05)
(0.0635994 -4.29641e-06 -2.02189e-05)
(0.0636063 -2.34623e-06 -9.97647e-06)
(0.0636075 -6.43211e-07 -7.1448e-07)
(0.063603 9.9894e-07 8.68216e-06)
(0.0635922 2.76156e-06 1.93565e-05)
(0.0635889 -6.22297e-06 -3.20533e-05)
(0.0636015 -4.05777e-06 -1.98264e-05)
(0.0636081 -2.25753e-06 -9.77713e-06)
(0.0636092 -6.63749e-07 -6.68838e-07)
(0.0636046 8.68934e-07 8.58014e-06)
(0.063594 2.48181e-06 1.90791e-05)
(0.0635911 -5.3935e-06 -3.15058e-05)
(0.0636034 -3.56891e-06 -1.94938e-05)
(0.0636097 -2.01751e-06 -9.60311e-06)
(0.0636106 -6.27722e-07 -6.24464e-07)
(0.0636061 7.06604e-07 8.50054e-06)
(0.0635956 2.08859e-06 1.88582e-05)
(0.063593 -4.34454e-06 -3.10819e-05)
(0.0636049 -2.9089e-06 -1.92297e-05)
(0.0636111 -1.66603e-06 -9.46135e-06)
(0.0636119 -5.41952e-07 -5.85124e-07)
(0.0636073 5.36263e-07 8.44226e-06)
(0.0635969 1.63949e-06 1.86922e-05)
(0.938267 1.9343e-06 -2.00748e-06)
(0.938263 3.44823e-06 -9.19132e-07)
(0.938255 5.93768e-06 4.02668e-06)
(0.938227 1.07772e-05 2.08774e-05)
(0.9381 2.65777e-05 7.9592e-05)
(0.937942 6.41982e-05 0.000244276)
(0.937984 8.69231e-05 0.000419221)
(0.938268 2.73497e-06 -2.11945e-06)
(0.938265 4.70877e-06 -1.20844e-06)
(0.938259 7.74772e-06 3.31776e-06)
(0.938239 1.29666e-05 1.88179e-05)
(0.938133 2.80573e-05 7.12454e-05)
(0.937978 6.34505e-05 0.000218681)
(0.937999 8.60325e-05 0.000382824)
(0.93827 2.77883e-06 -2.2488e-06)
(0.938267 4.57325e-06 -1.49991e-06)
(0.938262 7.16007e-06 2.65354e-06)
(0.938245 1.10583e-05 1.71995e-05)
(0.938145 1.83325e-05 6.68449e-05)
(0.937992 3.14454e-05 0.000208413)
(0.938006 4.09939e-05 0.000368833)
(0.938271 2.5407e-06 -2.35623e-06)
(0.938269 4.0602e-06 -1.71583e-06)
(0.938265 6.09665e-06 2.21533e-06)
(0.938249 8.92925e-06 1.62824e-05)
(0.938151 1.31975e-05 6.48651e-05)
(0.937999 1.94489e-05 0.000204525)
(0.93801 2.42936e-05 0.000363656)
(0.938273 2.20297e-06 -2.43537e-06)
(0.938271 3.45714e-06 -1.8625e-06)
(0.938267 5.03956e-06 1.94565e-06)
(0.938252 7.09931e-06 1.57779e-05)
(0.938155 9.87278e-06 6.39139e-05)
(0.938002 1.34009e-05 0.000202874)
(0.938012 1.6186e-05 0.000361507)
(0.938274 1.81224e-06 -2.49184e-06)
(0.938272 2.80877e-06 -1.96098e-06)
(0.938269 4.0054e-06 1.77842e-06)
(0.938254 5.46946e-06 1.54939e-05)
(0.938157 7.2665e-06 6.3437e-05)
(0.938005 9.32486e-06 0.000202135)
(0.938014 1.09604e-05 0.00036058)
(0.938274 1.40241e-06 -2.53111e-06)
(0.938273 2.15509e-06 -2.02648e-06)
(0.93827 3.02451e-06 1.67414e-06)
(0.938255 4.03726e-06 1.53308e-05)
(0.938159 5.19857e-06 6.3189e-05)
(0.938006 6.43464e-06 0.000201787)
(0.938014 7.40968e-06 0.000360161)
(0.283764 3.28283e-06 9.5894e-06)
(0.283738 5.71776e-06 1.93596e-05)
(0.2837 9.74115e-06 4.03123e-05)
(0.283638 1.71827e-05 8.89898e-05)
(0.283508 3.50899e-05 0.00021755)
(0.283428 6.73066e-05 0.000518397)
(0.28357 8.40656e-05 0.000814769)
(0.283766 4.70077e-06 9.23397e-06)
(0.283741 7.90634e-06 1.84922e-05)
(0.283706 1.28418e-05 3.82807e-05)
(0.283651 2.10275e-05 8.36601e-05)
(0.283535 3.88214e-05 0.000199489)
(0.283453 7.03815e-05 0.000469697)
(0.283578 8.82341e-05 0.000747187)
(0.283768 4.9938e-06 8.79959e-06)
(0.283745 8.06408e-06 1.75703e-05)
(0.283711 1.24622e-05 3.63259e-05)
(0.28366 1.89256e-05 7.93708e-05)
(0.28355 2.94015e-05 0.000189288)
(0.283467 4.4687e-05 0.000448281)
(0.283584 5.47901e-05 0.00071859)
(0.283771 4.70891e-06 8.41776e-06)
(0.283748 7.3794e-06 1.68388e-05)
(0.283716 1.0953e-05 3.49327e-05)
(0.283667 1.58112e-05 7.66945e-05)
(0.283559 2.25486e-05 0.000184079)
(0.283475 3.10103e-05 0.000438991)
(0.283589 3.69371e-05 0.000706588)
(0.283773 4.15397e-06 8.11847e-06)
(0.283751 6.37057e-06 1.63035e-05)
(0.283719 9.16822e-06 3.39949e-05)
(0.283671 1.27307e-05 7.50552e-05)
(0.283564 1.72279e-05 0.000181233)
(0.283481 2.23407e-05 0.000434425)
(0.283592 2.60034e-05 0.000700839)
(0.283775 3.45073e-06 7.89484e-06)
(0.283753 5.20712e-06 1.59237e-05)
(0.283722 7.3161e-06 3.33723e-05)
(0.283674 9.84767e-06 7.40509e-05)
(0.283568 1.28075e-05 0.000179648)
(0.283484 1.59302e-05 0.000432104)
(0.283594 1.8191e-05 0.000698002)
(0.283776 2.68546e-06 7.73426e-06)
(0.283755 4.00503e-06 1.56613e-05)
(0.283724 5.52778e-06 3.29642e-05)
(0.283677 7.27182e-06 7.34344e-05)
(0.28357 9.19669e-06 0.000178747)
(0.283486 1.11196e-05 0.000430879)
(0.283595 1.25082e-05 0.000696553)
(0.0635673 3.26508e-06 3.48772e-05)
(0.0635377 5.44123e-06 5.62327e-05)
(0.0634973 8.79593e-06 9.05001e-05)
(0.0634416 1.43424e-05 0.000148528)
(0.0633609 2.48555e-05 0.000258797)
(0.0633412 3.91991e-05 0.000472663)
(0.063477 4.36905e-05 0.000679604)
(0.0635692 4.69117e-06 3.43291e-05)
(0.0635406 7.61632e-06 5.50525e-05)
(0.0635019 1.18665e-05 8.80674e-05)
(0.06345 1.83291e-05 0.000143312)
(0.0633745 2.96299e-05 0.000244959)
(0.0633507 4.50126e-05 0.000440425)
(0.0634785 5.10449e-05 0.000635736)
(0.0635717 5.05376e-06 3.36433e-05)
(0.0635441 7.96368e-06 5.37269e-05)
(0.0635067 1.19449e-05 8.55603e-05)
(0.0634572 1.74546e-05 0.000138595)
(0.0633843 2.53554e-05 0.000235574)
(0.0633589 3.50633e-05 0.000422937)
(0.0634822 4.06986e-05 0.000612651)
(0.0635741 4.83641e-06 3.30132e-05)
(0.0635473 7.43988e-06 5.25953e-05)
(0.063511 1.08048e-05 8.35794e-05)
(0.0634628 1.51637e-05 0.000135175)
(0.063391 2.07428e-05 0.000229677)
(0.0633649 2.70176e-05 0.000413397)
(0.0634856 3.11681e-05 0.000600579)
(0.0635763 4.31637e-06 3.24926e-05)
(0.06355 6.5176e-06 5.17061e-05)
(0.0635143 9.22232e-06 8.21129e-05)
(0.0634669 1.25335e-05 0.000132803)
(0.0633957 1.64661e-05 0.000225906)
(0.0633691 2.06057e-05 0.000407786)
(0.0634881 2.34601e-05 0.000593681)
(0.0635781 3.61679e-06 3.20876e-05)
(0.0635521 5.38308e-06 5.10409e-05)
(0.0635169 7.4605e-06 8.10689e-05)
(0.0634699 9.87963e-06 0.000131211)
(0.0633989 1.25851e-05 0.000223548)
(0.0633719 1.52919e-05 0.000404512)
(0.0634899 1.71921e-05 0.00058976)
(0.0635796 2.83272e-06 3.17881e-05)
(0.0635538 4.17137e-06 5.05636e-05)
(0.0635188 5.69133e-06 8.03493e-05)
(0.0634719 7.39173e-06 0.000130165)
(0.063401 9.20848e-06 0.000222083)
(0.0633737 1.09578e-05 0.000402586)
(0.063491 1.21895e-05 0.000587513)
(0.938025 -8.76972e-06 -0.000335046)
(0.938005 -8.07114e-06 -0.000262583)
(0.938092 -6.98616e-06 -0.000104333)
(0.938214 -5.81382e-06 -3.30703e-05)
(0.938248 -4.6927e-06 -1.20827e-05)
(0.938255 -3.68586e-06 -4.29536e-06)
(0.938262 -2.81264e-06 -1.45699e-06)
(0.938026 -4.96368e-06 -0.000334859)
(0.938006 -4.59361e-06 -0.000262405)
(0.938093 -4.01696e-06 -0.000104179)
(0.938215 -3.38205e-06 -3.29494e-05)
(0.938249 -2.76016e-06 -1.19925e-05)
(0.938256 -2.18945e-06 -4.22982e-06)
(0.938262 -1.68521e-06 -1.41048e-06)
(0.938026 -1.60784e-06 -0.00033478)
(0.938006 -1.49184e-06 -0.000262329)
(0.938094 -1.31075e-06 -0.000104112)
(0.938216 -1.1096e-06 -3.28951e-05)
(0.938249 -9.10306e-07 -1.1951e-05)
(0.938256 -7.25482e-07 -4.19905e-06)
(0.938263 -5.60674e-07 -1.38828e-06)
(0.938026 1.60915e-06 -0.000334781)
(0.938006 1.49319e-06 -0.000262329)
(0.938094 1.31214e-06 -0.000104113)
(0.938216 1.11096e-06 -3.28951e-05)
(0.938249 9.11635e-07 -1.1951e-05)
(0.938256 7.26771e-07 -4.19905e-06)
(0.938263 5.61931e-07 -1.38828e-06)
(0.938026 4.96503e-06 -0.000334859)
(0.938006 4.59497e-06 -0.000262405)
(0.938093 4.01836e-06 -0.00010418)
(0.938215 3.38341e-06 -3.29494e-05)
(0.938249 2.76148e-06 -1.19925e-05)
(0.938256 2.19073e-06 -4.22983e-06)
(0.938262 1.68645e-06 -1.41048e-06)
(0.938025 8.77111e-06 -0.000335046)
(0.938005 8.07257e-06 -0.000262583)
(0.938092 6.9876e-06 -0.000104333)
(0.938214 5.81523e-06 -3.30704e-05)
(0.938248 4.69405e-06 -1.20827e-05)
(0.938255 3.68714e-06 -4.29539e-06)
(0.938262 2.81387e-06 -1.45696e-06)
(0.283516 -1.39658e-05 -0.000593639)
(0.283448 -1.27993e-05 -0.000455347)
(0.283516 -1.10521e-05 -0.00019854)
(0.283636 -9.1765e-06 -8.89196e-05)
(0.283695 -7.38242e-06 -4.96033e-05)
(0.283732 -5.76704e-06 -2.89939e-05)
(0.283761 -4.36533e-06 -1.78503e-05)
(0.283517 -7.93421e-06 -0.000592932)
(0.283449 -7.31263e-06 -0.0004547)
(0.283517 -6.37746e-06 -0.000198004)
(0.283637 -5.35471e-06 -8.85021e-05)
(0.283696 -4.35432e-06 -4.92904e-05)
(0.283734 -3.43481e-06 -2.87659e-05)
(0.283762 -2.62219e-06 -1.76886e-05)
(0.283517 -2.57407e-06 -0.000592624)
(0.28345 -2.37883e-06 -0.000454415)
(0.283518 -2.08436e-06 -0.000197764)
(0.283638 -1.75943e-06 -8.8311e-05)
(0.283697 -1.43814e-06 -4.91444e-05)
(0.283734 -1.13982e-06 -2.86577e-05)
(0.283762 -8.73745e-07 -1.76107e-05)
(0.283517 2.57524e-06 -0.000592624)
(0.28345 2.38011e-06 -0.000454415)
(0.283518 2.08564e-06 -0.000197764)
(0.283638 1.76063e-06 -8.83111e-05)
(0.283697 1.43924e-06 -4.91444e-05)
(0.283734 1.14079e-06 -2.86577e-05)
(0.283762 8.74642e-07 -1.76107e-05)
(0.283517 7.9353e-06 -0.000592932)
(0.283449 7.31384e-06 -0.0004547)
(0.283517 6.37869e-06 -0.000198004)
(0.283637 5.35587e-06 -8.85022e-05)
(0.283696 4.35538e-06 -4.92904e-05)
(0.283734 3.43576e-06 -2.87659e-05)
(0.283762 2.62304e-06 -1.76886e-05)
(0.283516 1.39669e-05 -0.00059364)
(0.283448 1.28004e-05 -0.000455347)
(0.283516 1.10533e-05 -0.00019854)
(0.283636 9.17765e-06 -8.89197e-05)
(0.283695 7.38348e-06 -4.96033e-05)
(0.283732 5.76799e-06 -2.89939e-05)
(0.283761 4.36618e-06 -1.78503e-05)
(0.0635026 -1.36505e-05 -0.000493819)
(0.0634063 -1.25193e-05 -0.000399579)
(0.0634111 -1.08653e-05 -0.000240588)
(0.0634734 -9.07261e-06 -0.000152647)
(0.063517 -7.33345e-06 -0.000102208)
(0.0635501 -5.74996e-06 -6.85945e-05)
(0.063576 -4.36217e-06 -4.63014e-05)
(0.0635033 -7.83782e-06 -0.000492608)
(0.0634074 -7.22372e-06 -0.000398483)
(0.0634124 -6.32183e-06 -0.000239678)
(0.0634748 -5.32955e-06 -0.00015193)
(0.0635183 -4.34872e-06 -0.000101662)
(0.0635513 -3.43948e-06 -6.81923e-05)
(0.063577 -2.62946e-06 -4.60138e-05)
(0.0635037 -2.55529e-06 -0.000492065)
(0.0634079 -2.36072e-06 -0.000397988)
(0.063413 -2.07424e-06 -0.000239261)
(0.0634754 -1.75674e-06 -0.000151596)
(0.0635189 -1.44003e-06 -0.000101404)
(0.0635518 -1.1438e-06 -6.79997e-05)
(0.0635775 -8.77726e-07 -4.58744e-05)
(0.0635037 2.55649e-06 -0.000492065)
(0.0634079 2.36196e-06 -0.000397988)
(0.063413 2.07545e-06 -0.000239261)
(0.0634754 1.75783e-06 -0.000151596)
(0.0635189 1.44098e-06 -0.000101404)
(0.0635518 1.14459e-06 -6.79997e-05)
(0.0635775 8.78384e-07 -4.58744e-05)
(0.0635033 7.83894e-06 -0.000492608)
(0.0634074 7.22488e-06 -0.000398484)
(0.0634124 6.32298e-06 -0.000239678)
(0.0634748 5.33059e-06 -0.00015193)
(0.0635183 4.34963e-06 -0.000101662)
(0.0635513 3.44023e-06 -6.81924e-05)
(0.063577 2.63008e-06 -4.60138e-05)
(0.0635026 1.36515e-05 -0.000493819)
(0.0634063 1.25204e-05 -0.000399579)
(0.0634111 1.08664e-05 -0.000240588)
(0.0634734 9.07363e-06 -0.000152647)
(0.063517 7.33435e-06 -0.000102208)
(0.0635501 5.7507e-06 -6.85946e-05)
(0.063576 4.36279e-06 -4.63013e-05)
(0.938266 -2.06848e-06 -7.27201e-07)
(0.938269 -1.43537e-06 -6.87061e-07)
(0.938271 -8.88326e-07 -8.81586e-07)
(0.938273 -3.99611e-07 -1.21457e-06)
(0.938274 5.92463e-08 -1.6749e-06)
(0.938275 5.147e-07 -2.17411e-06)
(0.938267 -1.24853e-06 -6.95254e-07)
(0.93827 -8.71982e-07 -6.6621e-07)
(0.938272 -5.4322e-07 -8.694e-07)
(0.938273 -2.47612e-07 -1.2096e-06)
(0.938274 3.03666e-08 -1.67669e-06)
(0.938275 3.05246e-07 -2.18256e-06)
(0.938267 -4.16809e-07 -6.79809e-07)
(0.93827 -2.91929e-07 -6.56017e-07)
(0.938272 -1.82318e-07 -8.63371e-07)
(0.938273 -8.3441e-08 -1.20709e-06)
(0.938275 9.61376e-09 -1.67748e-06)
(0.938275 1.01471e-07 -2.18658e-06)
(0.938267 4.1804e-07 -6.79821e-07)
(0.93827 2.93124e-07 -6.56024e-07)
(0.938272 1.83529e-07 -8.63373e-07)
(0.938273 8.46763e-08 -1.20709e-06)
(0.938275 -8.3472e-09 -1.67749e-06)
(0.938275 -1.00158e-07 -2.18658e-06)
(0.938267 1.24975e-06 -6.95276e-07)
(0.93827 8.7317e-07 -6.6623e-07)
(0.938272 5.44405e-07 -8.69413e-07)
(0.938273 2.48808e-07 -1.20961e-06)
(0.938274 -2.91381e-08 -1.6767e-06)
(0.938275 -3.03965e-07 -2.18254e-06)
(0.938266 2.06967e-06 -7.27194e-07)
(0.938269 1.43654e-06 -6.87056e-07)
(0.938271 8.89483e-07 -8.8159e-07)
(0.938273 4.00789e-07 -1.21457e-06)
(0.938274 -5.80485e-08 -1.67488e-06)
(0.938275 -5.13468e-07 -2.17405e-06)
(0.28378 -3.17019e-06 -1.15958e-05)
(0.283792 -2.1503e-06 -7.51826e-06)
(0.283799 -1.26271e-06 -4.48272e-06)
(0.283801 -4.60129e-07 -1.94906e-06)
(0.283798 3.05484e-07 5.19722e-07)
(0.283791 1.0806e-06 3.4039e-06)
(0.283781 -1.91815e-06 -1.14849e-05)
(0.283793 -1.3093e-06 -7.44669e-06)
(0.2838 -7.74148e-07 -4.44234e-06)
(0.283801 -2.8753e-07 -1.93513e-06)
(0.283799 1.76766e-07 5.08562e-07)
(0.283791 6.44169e-07 3.36651e-06)
(0.283781 -6.41405e-07 -1.1431e-05)
(0.283793 -4.39144e-07 -7.4115e-06)
(0.2838 -2.60461e-07 -4.42227e-06)
(0.283802 -9.75249e-08 -1.92803e-06)
(0.283799 5.79346e-08 5.03353e-07)
(0.283792 2.1401e-07 3.34858e-06)
(0.283781 6.42202e-07 -1.1431e-05)
(0.283793 4.39856e-07 -7.41151e-06)
(0.2838 2.6114e-07 -4.42227e-06)
(0.283802 9.81809e-08 -1.92804e-06)
(0.283799 -5.7343e-08 5.0334e-07)
(0.283792 -2.13432e-07 3.34859e-06)
(0.283781 1.91893e-06 -1.14849e-05)
(0.283793 1.31001e-06 -7.44671e-06)
(0.2838 7.74798e-07 -4.44234e-06)
(0.283801 2.88123e-07 -1.93514e-06)
(0.283799 -1.76212e-07 5.08576e-07)
(0.283791 -6.43603e-07 3.36658e-06)
(0.28378 3.17097e-06 -1.15957e-05)
(0.283792 2.151e-06 -7.51825e-06)
(0.283799 1.26335e-06 -4.48272e-06)
(0.283801 4.60709e-07 -1.94904e-06)
(0.283798 -3.04913e-07 5.19803e-07)
(0.283791 -1.08002e-06 3.40405e-06)
(0.0635943 -3.16791e-06 -3.07755e-05)
(0.063606 -2.1399e-06 -1.90348e-05)
(0.0636121 -1.23785e-06 -9.35476e-06)
(0.0636129 -4.16107e-07 -5.53638e-07)
(0.0636083 3.71733e-07 8.40228e-06)
(0.0635979 1.17078e-06 1.85752e-05)
(0.0635952 -1.92225e-06 -3.05775e-05)
(0.0636068 -1.30611e-06 -1.89071e-05)
(0.0636128 -7.60599e-07 -9.28389e-06)
(0.0636135 -2.61247e-07 -5.31717e-07)
(0.0636089 2.17393e-07 8.37763e-06)
(0.0635986 7.00096e-07 1.85012e-05)
(0.0635956 -6.43745e-07 -3.04806e-05)
(0.0636072 -4.38667e-07 -1.88441e-05)
(0.0636131 -2.56259e-07 -9.24858e-06)
(0.0636138 -8.8918e-08 -5.20528e-07)
(0.0636092 7.14517e-08 8.36589e-06)
(0.0635989 2.32774e-07 1.84654e-05)
(0.0635956 6.44289e-07 -3.04807e-05)
(0.0636072 4.39084e-07 -1.88441e-05)
(0.0636131 2.56634e-07 -9.2486e-06)
(0.0636138 8.91861e-08 -5.20545e-07)
(0.0636092 -7.13087e-08 8.36589e-06)
(0.0635989 -2.32671e-07 1.84654e-05)
(0.0635952 1.92279e-06 -3.05776e-05)
(0.0636068 1.30652e-06 -1.89072e-05)
(0.0636128 7.60923e-07 -9.2839e-06)
(0.0636135 2.61469e-07 -5.31743e-07)
(0.0636089 -2.17238e-07 8.37762e-06)
(0.0635986 -6.99974e-07 1.85012e-05)
(0.0635943 3.16844e-06 -3.07755e-05)
(0.063606 2.14032e-06 -1.90348e-05)
(0.0636121 1.23817e-06 -9.35477e-06)
(0.0636129 4.16324e-07 -5.53633e-07)
(0.0636083 -3.71569e-07 8.40232e-06)
(0.0635979 -1.17064e-06 1.85753e-05)
(0.938275 9.93055e-07 -2.55737e-06)
(0.938274 1.51755e-06 -2.06891e-06)
(0.93827 2.1065e-06 1.60985e-06)
(0.938256 2.76882e-06 1.52364e-05)
(0.93816 3.49463e-06 6.30554e-05)
(0.938007 4.23138e-06 0.000201613)
(0.938015 4.80533e-06 0.00035996)
(0.938275 5.91258e-07 -2.57345e-06)
(0.938274 9.00449e-07 -2.09434e-06)
(0.938271 1.24131e-06 1.57253e-06)
(0.938257 1.61599e-06 1.51838e-05)
(0.93816 2.01516e-06 6.29846e-05)
(0.938007 2.40899e-06 0.000201525)
(0.938015 2.71263e-06 0.000359862)
(0.938276 1.96614e-07 -2.58107e-06)
(0.938274 2.98747e-07 -2.10625e-06)
(0.938271 4.10321e-07 1.55535e-06)
(0.938257 5.31591e-07 1.51601e-05)
(0.93816 6.59046e-07 6.29536e-05)
(0.938007 7.83145e-07 0.000201487)
(0.938015 8.78407e-07 0.000359822)
(0.938276 -1.95249e-07 -2.58106e-06)
(0.938274 -2.97347e-07 -2.10624e-06)
(0.938271 -4.08895e-07 1.55536e-06)
(0.938257 -5.3014e-07 1.51601e-05)
(0.93816 -6.57576e-07 6.29536e-05)
(0.938007 -7.81529e-07 0.000201487)
(0.938015 -8.76284e-07 0.000359822)
(0.938275 -5.89924e-07 -2.5734e-06)
(0.938274 -8.99082e-07 -2.09429e-06)
(0.938271 -1.23992e-06 1.57257e-06)
(0.938257 -1.61456e-06 1.51838e-05)
(0.93816 -2.01371e-06 6.29846e-05)
(0.938007 -2.40739e-06 0.000201525)
(0.938015 -2.71055e-06 0.000359862)
(0.938275 -9.91777e-07 -2.55729e-06)
(0.938274 -1.51623e-06 -2.06883e-06)
(0.93827 -2.10516e-06 1.60993e-06)
(0.938256 -2.76745e-06 1.52364e-05)
(0.93816 -3.49319e-06 6.30555e-05)
(0.938007 -4.2298e-06 0.000201613)
(0.938015 -4.80332e-06 0.00035996)
(0.283777 1.90753e-06 7.62461e-06)
(0.283756 2.8221e-06 1.54871e-05)
(0.283725 3.84705e-06 3.27039e-05)
(0.283678 4.9814e-06 7.30594e-05)
(0.283571 6.18439e-06 0.000178229)
(0.283487 7.34252e-06 0.00043021)
(0.283596 8.17243e-06 0.000695784)
(0.283778 1.13729e-06 7.55663e-06)
(0.283756 1.67422e-06 1.53811e-05)
(0.283726 2.26449e-06 3.25495e-05)
(0.283679 2.90328e-06 7.28444e-05)
(0.283572 3.56378e-06 0.000177943)
(0.283488 4.18525e-06 0.000429854)
(0.283596 4.62758e-06 0.000695383)
(0.283778 3.77784e-07 7.52416e-06)
(0.283757 5.54742e-07 1.53311e-05)
(0.283726 7.47448e-07 3.24777e-05)
(0.283679 9.53698e-07 7.27461e-05)
(0.283573 1.16434e-06 0.000177814)
(0.283488 1.36045e-06 0.000429698)
(0.283596 1.49975e-06 0.00069521)
(0.283778 -3.77199e-07 7.52419e-06)
(0.283757 -5.5415e-07 1.53311e-05)
(0.283726 -7.46825e-07 3.24777e-05)
(0.283679 -9.53024e-07 7.27461e-05)
(0.283573 -1.1636e-06 0.000177814)
(0.283488 -1.35935e-06 0.000429698)
(0.283596 -1.4976e-06 0.00069521)
(0.283778 -1.13671e-06 7.55672e-06)
(0.283756 -1.67364e-06 1.53812e-05)
(0.283726 -2.26388e-06 3.25496e-05)
(0.283679 -2.9026e-06 7.28444e-05)
(0.283572 -3.56302e-06 0.000177942)
(0.283488 -4.18413e-06 0.000429854)
(0.283596 -4.62548e-06 0.000695383)
(0.283777 -1.90693e-06 7.62475e-06)
(0.283756 -2.82149e-06 1.54872e-05)
(0.283725 -3.8464e-06 3.27039e-05)
(0.283678 -4.98068e-06 7.30594e-05)
(0.283571 -6.18355e-06 0.000178229)
(0.283487 -7.34137e-06 0.00043021)
(0.283596 -8.17039e-06 0.000695784)
(0.0635807 2.02111e-06 3.15792e-05)
(0.063555 2.95431e-06 5.02383e-05)
(0.0635201 3.98647e-06 7.98734e-05)
(0.0634733 5.1074e-06 0.000129497)
(0.0634024 6.26679e-06 0.000221187)
(0.0633749 7.35318e-06 0.000401451)
(0.0634917 8.11532e-06 0.000586218)
(0.0635814 1.20835e-06 3.14479e-05)
(0.0635557 1.75814e-06 5.00368e-05)
(0.0635209 2.35577e-06 7.95848e-05)
(0.0634742 2.99222e-06 0.000129103)
(0.0634032 3.63686e-06 0.000220671)
(0.0633756 4.23048e-06 0.000400816)
(0.0634922 4.64518e-06 0.000585504)
(0.0635817 4.01759e-07 3.13847e-05)
(0.0635561 5.83254e-07 4.99407e-05)
(0.0635213 7.78845e-07 7.94487e-05)
(0.0634746 9.85129e-07 0.00012892)
(0.0634036 1.19194e-06 0.000220435)
(0.0633759 1.3809e-06 0.00040053)
(0.0634924 1.51281e-06 0.000585186)
(0.0635817 -4.01696e-07 3.13847e-05)
(0.0635561 -5.83212e-07 4.99407e-05)
(0.0635213 -7.78794e-07 7.94487e-05)
(0.0634746 -9.85049e-07 0.00012892)
(0.0634036 -1.1918e-06 0.000220435)
(0.0633759 -1.38032e-06 0.00040053)
(0.0634924 -1.51106e-06 0.000585186)
(0.0635814 -1.20829e-06 3.14479e-05)
(0.0635557 -1.7581e-06 5.00368e-05)
(0.0635209 -2.3557e-06 7.95847e-05)
(0.0634742 -2.9921e-06 0.000129103)
(0.0634032 -3.63667e-06 0.000220671)
(0.0633756 -4.2299e-06 0.000400816)
(0.0634922 -4.64346e-06 0.000585504)
(0.0635807 -2.02101e-06 3.15792e-05)
(0.063555 -2.95422e-06 5.02382e-05)
(0.0635201 -3.98634e-06 7.98733e-05)
(0.0634733 -5.10722e-06 0.000129497)
(0.0634024 -6.2665e-06 0.000221186)
(0.0633749 -7.35254e-06 0.000401451)
(0.0634917 -8.11366e-06 0.000586217)
(0.938024 1.3463e-05 -0.000335421)
(0.938004 1.2279e-05 -0.000262933)
(0.938091 1.04447e-05 -0.000104621)
(0.938213 8.52483e-06 -3.3288e-05)
(0.938246 6.75984e-06 -1.22383e-05)
(0.938254 5.22754e-06 -4.40456e-06)
(0.938261 3.93585e-06 -1.53218e-06)
(0.938023 1.97708e-05 -0.000336182)
(0.938002 1.77959e-05 -0.000263619)
(0.938089 1.47164e-05 -0.000105155)
(0.938211 1.16492e-05 -3.36634e-05)
(0.938244 8.99686e-06 -1.24908e-05)
(0.938252 6.80375e-06 -4.57289e-06)
(0.938259 5.02587e-06 -1.64337e-06)
(0.938021 2.88829e-05 -0.000337827)
(0.937998 2.55731e-05 -0.000265052)
(0.938084 2.02592e-05 -0.000106181)
(0.938207 1.53228e-05 -3.43188e-05)
(0.938241 1.14037e-05 -1.2896e-05)
(0.93825 8.36637e-06 -4.82533e-06)
(0.938258 6.02483e-06 -1.80095e-06)
(0.938016 4.28416e-05 -0.00034156)
(0.937992 3.70582e-05 -0.000268212)
(0.938078 2.75282e-05 -0.000108241)
(0.938201 1.9561e-05 -3.54876e-05)
(0.938237 1.38908e-05 -1.35483e-05)
(0.938247 9.80171e-06 -5.1993e-06)
(0.938255 6.8284e-06 -2.01842e-06)
(0.938009 7.13122e-05 -0.000350504)
(0.93798 5.90775e-05 -0.000275493)
(0.938066 3.8607e-05 -0.000112422)