/*--------------------------------*- C++ -*----------------------------------*\
  =========                 |
  \\      /  F ield         | OpenFOAM: The Open Source CFD Toolbox
   \\    /   O peration     | Website:  https://openfoam.org
    \\  /    A nd           | Version:  7
     \\/     M anipulation  |
\*---------------------------------------------------------------------------*/
FoamFile
{
    version     2.0;
    format      ascii;
    class       volScalarField;
    location    "4.25";
    object      p;
}
// * * * * * * * * * * * * * * * * * * * * * * * * * * * * * * * * * * * * * //

dimensions      [0 2 -2 0 0 0 0];

internalField   nonuniform List<scalar> 
7784
(
3.125e-11
-0.000106601
-0.000252561
-0.000375484
-0.000467568
-0.000536123
-0.000588639
-1.70114e-05
-0.000129845
-0.000271139
-0.000386235
-0.000473084
-0.000538923
-0.000589997
-4.78116e-05
-0.000156521
-0.000289237
-0.000396961
-0.000479243
-0.00054251
-0.000591947
-7.05251e-05
-0.000175308
-0.000302521
-0.000405587
-0.00048461
-0.000545518
-0.000593853
-8.60048e-05
-0.000188462
-0.000312381
-0.00041243
-0.000489114
-0.000548272
-0.000595581
-9.66241e-05
-0.000197699
-0.00031956
-0.000417629
-0.000492682
-0.0005505
-0.000597055
-0.000103684
-0.000203942
-0.000324563
-0.000421397
-0.0004954
-0.00055243
-0.000598276
-0.000120024
-0.0002246
-0.000344083
-0.000435295
-0.000503338
-0.000557003
-0.000601286
-0.00013283
-0.00024227
-0.00035721
-0.000442521
-0.000506895
-0.000558627
-0.000601788
-0.000152791
-0.00025902
-0.000368131
-0.000448874
-0.00051058
-0.000560649
-0.000602758
-0.000167585
-0.000270657
-0.000376122
-0.000454098
-0.000514004
-0.00056301
-0.000603948
-0.000178161
-0.00027936
-0.000382564
-0.000458609
-0.000517075
-0.000565083
-0.000605124
-0.000185917
-0.000285984
-0.000387676
-0.000462329
-0.000519695
-0.000566949
-0.000606214
-0.000191369
-0.00029075
-0.000391477
-0.000465192
-0.00052176
-0.000568325
-0.000607121
-0.000237965
-0.000321453
-0.000410934
-0.000479857
-0.000533568
-0.000577746
-0.000615333
-0.000245675
-0.000331498
-0.000417848
-0.000483447
-0.00053515
-0.000578231
-0.000615184
-0.000257344
-0.000341239
-0.000424262
-0.000487241
-0.00053734
-0.000579395
-0.000615642
-0.000266653
-0.000348685
-0.000429502
-0.000490733
-0.00053963
-0.000580845
-0.0006164
-0.000273805
-0.000354668
-0.000433997
-0.000493912
-0.000541804
-0.000582272
-0.000617212
-0.000279315
-0.000359446
-0.000437736
-0.00049666
-0.000543749
-0.000583598
-0.000618009
-0.000283334
-0.000363023
-0.000440629
-0.000498857
-0.000545348
-0.000584699
-0.000618704
-0.000630884
-0.000666538
-0.000698655
-0.000729552
-0.000761262
-0.000795916
-0.00063129
-0.000666422
-0.000698238
-0.000728912
-0.000760357
-0.000794591
-0.000632131
-0.00066658
-0.000697971
-0.000728312
-0.000759409
-0.000793178
-0.000633107
-0.000666899
-0.000697838
-0.000727803
-0.00075852
-0.000791834
-0.000634051
-0.000667264
-0.00069777
-0.000727365
-0.000757712
-0.000790603
-0.000634899
-0.000667622
-0.000697747
-0.000727006
-0.000757021
-0.000789546
-0.000635614
-0.000667938
-0.00069775
-0.000726727
-0.000756465
-0.000788693
-0.000638627
-0.000671587
-0.000702179
-0.000732152
-0.000763191
-0.000797121
-0.000638536
-0.000671161
-0.000701574
-0.000731409
-0.000762268
-0.000795924
-0.000638842
-0.000671043
-0.000701152
-0.000730725
-0.000761293
-0.000794546
-0.000639368
-0.000671126
-0.000700883
-0.000730143
-0.000760378
-0.000793226
-0.00063995
-0.000671279
-0.000700688
-0.000729634
-0.000759546
-0.000792017
-0.000640525
-0.00067147
-0.000700557
-0.000729213
-0.000758831
-0.000790973
-0.000641034
-0.000671664
-0.000700475
-0.000728883
-0.000758254
-0.000790128
-0.000648031
-0.00067752
-0.000705317
-0.000732805
-0.000761383
-0.000792298
-0.000647531
-0.000676848
-0.000704566
-0.000731975
-0.000760375
-0.000791165
-0.000647522
-0.000676535
-0.000704035
-0.00073125
-0.00075942
-0.000789893
-0.000647793
-0.000676455
-0.000703678
-0.00073064
-0.000758536
-0.000788674
-0.000648148
-0.000676462
-0.000703403
-0.000730106
-0.00075773
-0.000787552
-0.000648535
-0.00067653
-0.000703204
-0.000729663
-0.000757037
-0.000786579
-0.000648899
-0.000676624
-0.000703067
-0.000729314
-0.000756476
-0.000785786
-0.00083591
-0.000884923
-0.000947316
-0.0010268
-0.00112324
-0.00121129
-0.00117224
-0.000834082
-0.000882209
-0.000943159
-0.0010203
-0.00111396
-0.00120548
-0.00117548
-0.000831982
-0.000879166
-0.000938635
-0.0010135
-0.00110404
-0.00119234
-0.00116095
-0.000830052
-0.000876348
-0.000934574
-0.0010077
-0.001096
-0.00118201
-0.00114931
-0.000828293
-0.000873873
-0.000931138
-0.001003
-0.00108981
-0.00117445
-0.00114102
-0.000826796
-0.000871823
-0.000928385
-0.000999384
-0.00108523
-0.001169
-0.00113508
-0.000825601
-0.000870217
-0.000926289
-0.00099672
-0.00108196
-0.00116522
-0.001131
-0.000836088
-0.000882682
-0.000939167
-0.0010062
-0.00108283
-0.0011532
-0.00114079
-0.000834437
-0.000880267
-0.000935531
-0.00100036
-0.00107434
-0.00114689
-0.00114112
-0.000832473
-0.000877452
-0.000931525
-0.000994681
-0.00106612
-0.00113659
-0.00113071
-0.000830614
-0.000874853
-0.000927938
-0.000989825
-0.00105968
-0.00112879
-0.00112245
-0.000828932
-0.000872556
-0.000924862
-0.000985789
-0.00105461
-0.00112295
-0.00111637
-0.000827493
-0.000870631
-0.000922352
-0.000982589
-0.0010507
-0.0011185
-0.00111172
-0.000826337
-0.000869109
-0.000920413
-0.000980178
-0.00104782
-0.00111527
-0.00110835
-0.000827328
-0.000868168
-0.00091577
-0.00096975
-0.00102797
-0.00107895
-0.0010803
-0.000825856
-0.000866111
-0.000912817
-0.000965246
-0.00102161
-0.00107338
-0.00107737
-0.000824116
-0.000863696
-0.000909481
-0.000960654
-0.00101532
-0.00106599
-0.0010704
-0.000822447
-0.000861419
-0.000906432
-0.000956681
-0.0010103
-0.00106029
-0.00106484
-0.000820926
-0.000859388
-0.000903773
-0.000953317
-0.00100622
-0.00105581
-0.00106049
-0.000819617
-0.000857672
-0.000901572
-0.000950596
-0.00100299
-0.00105229
-0.001057
-0.000818558
-0.000856305
-0.000899851
-0.000948513
-0.00100057
-0.00104967
-0.00105438
-0.000108192
-0.000207995
-0.000327903
-0.000423995
-0.000497343
-0.000553875
-0.000599202
-0.000110862
-0.00021043
-0.000329952
-0.000425623
-0.000498587
-0.000554814
-0.000599816
-0.000112105
-0.000211573
-0.000330925
-0.000426407
-0.000499193
-0.000555274
-0.000600122
-0.000112103
-0.000211572
-0.000330924
-0.000426406
-0.000499192
-0.000555273
-0.000600121
-0.000110858
-0.000210426
-0.000329948
-0.00042562
-0.000498584
-0.000554812
-0.000599815
-0.000108185
-0.000207988
-0.000327897
-0.00042399
-0.000497338
-0.000553872
-0.0005992
-0.000194987
-0.000293985
-0.000394134
-0.000467251
-0.000523278
-0.000569344
-0.000607818
-0.000197184
-0.000295985
-0.000395811
-0.000468577
-0.000524273
-0.000570028
-0.000608291
-0.00019822
-0.000296939
-0.000396622
-0.000469225
-0.000524765
-0.000570372
-0.000608529
-0.000198219
-0.000296938
-0.000396621
-0.000469224
-0.000524764
-0.000570371
-0.000608529
-0.00019718
-0.000295981
-0.000395808
-0.000468574
-0.000524271
-0.000570027
-0.00060829
-0.000194981
-0.000293979
-0.000394128
-0.000467246
-0.000523274
-0.000569342
-0.000607817
-0.000286078
-0.000365524
-0.000442709
-0.00050048
-0.000546554
-0.000585542
-0.000619252
-0.000287778
-0.000367102
-0.000444049
-0.000501544
-0.000547357
-0.000586112
-0.000619629
-0.000288589
-0.000367863
-0.000444703
-0.000502069
-0.000547757
-0.000586398
-0.000619821
-0.000288588
-0.000367863
-0.000444702
-0.000502068
-0.000547757
-0.000586398
-0.00061982
-0.000287775
-0.000367099
-0.000444046
-0.000501541
-0.000547356
-0.00058611
-0.000619628
-0.000286073
-0.000365519
-0.000442705
-0.000500476
-0.000546551
-0.00058554
-0.000619251
-0.000636168
-0.00066821
-0.000697766
-0.000726523
-0.00075605
-0.000788055
-0.000636538
-0.000668375
-0.000697779
-0.00072639
-0.000755774
-0.000787632
-0.000636722
-0.000668447
-0.000697784
-0.000726324
-0.000755637
-0.000787421
-0.000636722
-0.000668447
-0.000697784
-0.000726324
-0.000755637
-0.00078742
-0.000636537
-0.000668374
-0.000697778
-0.00072639
-0.000755774
-0.000787631
-0.000636166
-0.000668209
-0.000697766
-0.000726523
-0.000756049
-0.000788054
-0.000641437
-0.000671812
-0.000700424
-0.000728641
-0.000757822
-0.000789494
-0.000641718
-0.000671938
-0.000700398
-0.000728483
-0.000757535
-0.000789072
-0.000641863
-0.000672012
-0.000700388
-0.000728405
-0.000757392
-0.000788861
-0.000641862
-0.000672012
-0.000700388
-0.000728405
-0.000757392
-0.000788861
-0.000641718
-0.000671938
-0.000700398
-0.000728482
-0.000757535
-0.000789071
-0.000641436
-0.000671812
-0.000700424
-0.00072864
-0.000757821
-0.000789492
-0.000649197
-0.000676712
-0.000702976
-0.000729058
-0.000756054
-0.000785188
-0.000649408
-0.000676783
-0.000702923
-0.000728889
-0.000755773
-0.000784789
-0.000649518
-0.000676823
-0.000702898
-0.000728806
-0.000755632
-0.000784589
-0.000649518
-0.000676823
-0.000702898
-0.000728806
-0.000755632
-0.000784589
-0.000649408
-0.000676782
-0.000702922
-0.000728889
-0.000755772
-0.000784788
-0.000649197
-0.000676711
-0.000702976
-0.000729057
-0.000756053
-0.000785186
-0.000824713
-0.000869043
-0.000924789
-0.000994861
-0.00107974
-0.0011627
-0.00112832
-0.000824128
-0.000868278
-0.000923825
-0.000993686
-0.00107836
-0.00116115
-0.00112669
-0.000823838
-0.000867901
-0.000923353
-0.000993117
-0.0010777
-0.00116042
-0.00112592
-0.000823838
-0.000867901
-0.000923353
-0.000993116
-0.0010777
-0.00116042
-0.00112591
-0.000824127
-0.000868277
-0.000923823
-0.000993683
-0.00107836
-0.00116115
-0.00112668
-0.000824711
-0.000869041
-0.000924786
-0.000994857
-0.00107974
-0.00116269
-0.00112831
-0.000825475
-0.000867989
-0.00091901
-0.00097847
-0.00104582
-0.00111306
-0.00110606
-0.000824906
-0.000867256
-0.000918103
-0.000977378
-0.00104457
-0.00111169
-0.00110463
-0.000824623
-0.000866893
-0.000917657
-0.000976847
-0.00104396
-0.00111102
-0.00110395
-0.000824622
-0.000866893
-0.000917657
-0.000976846
-0.00104396
-0.00111102
-0.00110395
-0.000824905
-0.000867254
-0.000918101
-0.000977376
-0.00104456
-0.00111168
-0.00110463
-0.000825474
-0.000867986
-0.000919007
-0.000978466
-0.00104582
-0.00111306
-0.00110605
-0.000817765
-0.000855293
-0.000898595
-0.000947018
-0.00099886
-0.00104783
-0.00105255
-0.000817237
-0.000854625
-0.000897776
-0.000946054
-0.000997769
-0.00104666
-0.00105139
-0.000816974
-0.000854294
-0.000897372
-0.000945582
-0.000997237
-0.0010461
-0.00105083
-0.000816974
-0.000854293
-0.000897372
-0.000945581
-0.000997237
-0.0010461
-0.00105083
-0.000817236
-0.000854624
-0.000897775
-0.000946052
-0.000997766
-0.00104666
-0.00105138
-0.000817763
-0.000855291
-0.000898593
-0.000947014
-0.000998855
-0.00104782
-0.00105254
-0.000103674
-0.000203932
-0.000324555
-0.00042139
-0.000495395
-0.000552426
-0.000598273
-9.66107e-05
-0.000197686
-0.000319549
-0.00041762
-0.000492675
-0.000550495
-0.000597052
-8.59877e-05
-0.000188447
-0.000312368
-0.00041242
-0.000489106
-0.000548268
-0.000595577
-7.05037e-05
-0.00017529
-0.000302506
-0.000405576
-0.000484602
-0.000545512
-0.000593849
-4.7787e-05
-0.0001565
-0.000289222
-0.00039695
-0.000479235
-0.000542503
-0.000591944
-1.69834e-05
-0.000129821
-0.000271125
-0.000386226
-0.000473079
-0.00053892
-0.000589996
2.66701e-08
-0.000106579
-0.000252551
-0.00037548
-0.000467567
-0.000536125
-0.000588642
-0.00019136
-0.000290742
-0.00039147
-0.000465187
-0.000521755
-0.000568322
-0.000607119
-0.000185905
-0.000285973
-0.000387666
-0.000462322
-0.00051969
-0.000566945
-0.000606212
-0.000178144
-0.000279346
-0.000382553
-0.0004586
-0.000517069
-0.000565079
-0.000605122
-0.000167563
-0.000270639
-0.00037611
-0.000454089
-0.000513998
-0.000563007
-0.000603947
-0.000152762
-0.000258997
-0.000368116
-0.000448865
-0.000510575
-0.000560648
-0.000602758
-0.000132795
-0.000242242
-0.000357195
-0.000442514
-0.000506892
-0.000558627
-0.000601791
-0.000119988
-0.000224574
-0.000344073
-0.000435293
-0.00050334
-0.000557008
-0.000601294
-0.000283326
-0.000363016
-0.000440623
-0.000498853
-0.000545344
-0.000584697
-0.000618703
-0.000279304
-0.000359437
-0.000437729
-0.000496654
-0.000543745
-0.000583596
-0.000618007
-0.00027379
-0.000354655
-0.000433988
-0.000493906
-0.0005418
-0.000582269
-0.000617211
-0.000266632
-0.000348669
-0.000429491
-0.000490726
-0.000539626
-0.000580844
-0.0006164
-0.000257314
-0.000341218
-0.00042425
-0.000487234
-0.000537336
-0.000579395
-0.000615643
-0.000245639
-0.000331474
-0.000417836
-0.000483442
-0.000535149
-0.000578234
-0.000615188
-0.00023793
-0.000321431
-0.000410927
-0.000479857
-0.000533573
-0.000577753
-0.000615341
-0.000635612
-0.000667937
-0.000697749
-0.000726726
-0.000756465
-0.000788692
-0.000634898
-0.000667621
-0.000697746
-0.000727006
-0.00075702
-0.000789544
-0.00063405
-0.000667263
-0.00069777
-0.000727365
-0.000757711
-0.000790601
-0.000633106
-0.0006669
-0.000697839
-0.000727804
-0.00075852
-0.000791832
-0.00063213
-0.000666581
-0.000697973
-0.000728314
-0.00075941
-0.000793177
-0.000631291
-0.000666426
-0.000698242
-0.000728916
-0.00076036
-0.000794593
-0.000630889
-0.000666543
-0.000698661
-0.000729559
-0.000761268
-0.000795921
-0.000641033
-0.000671663
-0.000700475
-0.000728882
-0.000758253
-0.000790127
-0.000640524
-0.000671469
-0.000700557
-0.000729212
-0.00075883
-0.000790972
-0.000639949
-0.000671279
-0.000700689
-0.000729634
-0.000759545
-0.000792016
-0.000639368
-0.000671127
-0.000700885
-0.000730144
-0.000760379
-0.000793226
-0.000638843
-0.000671046
-0.000701155
-0.000730728
-0.000761295
-0.000794546
-0.00063854
-0.000671166
-0.00070158
-0.000731415
-0.000762273
-0.000795927
-0.000638634
-0.000671595
-0.000702187
-0.00073216
-0.000763198
-0.000797126
-0.000648898
-0.000676623
-0.000703067
-0.000729314
-0.000756475
-0.000785784
-0.000648535
-0.00067653
-0.000703204
-0.000729662
-0.000757036
-0.000786577
-0.000648148
-0.000676463
-0.000703404
-0.000730106
-0.00075773
-0.000787551
-0.000647794
-0.000676457
-0.00070368
-0.000730642
-0.000758538
-0.000788673
-0.000647524
-0.000676538
-0.000704039
-0.000731254
-0.000759423
-0.000789894
-0.000647536
-0.000676853
-0.000704572
-0.000731981
-0.000760382
-0.000791168
-0.00064804
-0.000677529
-0.000705326
-0.000732814
-0.000761392
-0.000792304
-0.000825598
-0.000870213
-0.000926284
-0.000996714
-0.00108196
-0.00116521
-0.00113099
-0.000826793
-0.000871818
-0.000928378
-0.000999375
-0.00108522
-0.00116899
-0.00113507
-0.000828289
-0.000873867
-0.00093113
-0.00100299
-0.0010898
-0.00117444
-0.001141
-0.000830048
-0.000876341
-0.000934564
-0.00100769
-0.00109598
-0.00118198
-0.00114929
-0.000831976
-0.000879158
-0.000938623
-0.00101349
-0.00110401
-0.00119231
-0.00116092
-0.000834082
-0.000882203
-0.000943147
-0.00102029
-0.00111393
-0.00120545
-0.00117544
-0.000835911
-0.00088492
-0.000947307
-0.00102678
-0.00112322
-0.00121125
-0.0011722
-0.000826335
-0.000869106
-0.000920409
-0.000980173
-0.00104781
-0.00111527
-0.00110834
-0.00082749
-0.000870627
-0.000922346
-0.000982581
-0.00105069
-0.00111849
-0.00111171
-0.000828929
-0.000872551
-0.000924855
-0.00098578
-0.0010546
-0.00112293
-0.00111635
-0.000830611
-0.000874848
-0.00092793
-0.000989813
-0.00105967
-0.00112877
-0.00112242
-0.00083247
-0.000877446
-0.000931515
-0.000994667
-0.0010661
-0.00113656
-0.00113068
-0.000834437
-0.000880262
-0.000935522
-0.00100035
-0.00107432
-0.00114686
-0.00114108
-0.00083609
-0.00088268
-0.000939161
-0.00100619
-0.00108281
-0.00115318
-0.00114076
-0.000818556
-0.000856302
-0.000899847
-0.000948508
-0.00100056
-0.00104966
-0.00105438
-0.000819615
-0.000857668
-0.000901567
-0.000950589
-0.00100298
-0.00105228
-0.00105699
-0.000820924
-0.000859384
-0.000903766
-0.000953308
-0.00100621
-0.0010558
-0.00106047
-0.000822445
-0.000861414
-0.000906425
-0.000956671
-0.00101028
-0.00106027
-0.00106482
-0.000824115
-0.000863691
-0.000909473
-0.000960642
-0.0010153
-0.00106597
-0.00107037
-0.000825856
-0.000866107
-0.000912809
-0.000965234
-0.00102159
-0.00107336
-0.00107734
-0.000827331
-0.000868167
-0.000915766
-0.000969741
-0.00102795
-0.00107893
-0.00108027
-0.000357471
-0.000411348
-0.00047191
-0.000522578
-0.000564451
-0.000600044
-0.000630989
-0.000360613
-0.000415776
-0.000475016
-0.000524044
-0.000564804
-0.000599773
-0.00063038
-0.000366521
-0.000421052
-0.00047871
-0.000526239
-0.000565971
-0.000600263
-0.00063041
-0.000371987
-0.000425721
-0.000482156
-0.000528554
-0.000567446
-0.000601123
-0.000630798
-0.000376496
-0.000429665
-0.000485213
-0.000530733
-0.000568918
-0.000602047
-0.000631286
-0.00038011
-0.000432921
-0.000487833
-0.000532681
-0.000570293
-0.000602956
-0.000631809
-0.000382841
-0.000435443
-0.000489927
-0.000534291
-0.000571466
-0.000603757
-0.000632296
-0.000467327
-0.000495024
-0.000531471
-0.000565832
-0.000596111
-0.000622967
-0.000647072
-0.000467722
-0.000496036
-0.000532257
-0.000565897
-0.000595593
-0.000622158
-0.000646147
-0.000470102
-0.000498465
-0.000534056
-0.000566876
-0.000595962
-0.00062213
-0.000645855
-0.000472916
-0.00050111
-0.000536105
-0.000568242
-0.000596785
-0.000622544
-0.000645957
-0.000475443
-0.000503484
-0.000538027
-0.000569623
-0.000597699
-0.00062308
-0.00064619
-0.000477585
-0.000505542
-0.000539754
-0.000570926
-0.00059861
-0.00062366
-0.000646495
-0.000479283
-0.000507206
-0.00054119
-0.000572047
-0.000599426
-0.000624205
-0.000646807
-0.000561703
-0.000570068
-0.000587851
-0.000608232
-0.000627767
-0.000646174
-0.000663448
-0.000560898
-0.000569174
-0.000587213
-0.000607395
-0.000626708
-0.000645058
-0.000662365
-0.000561293
-0.000569816
-0.000587708
-0.000607502
-0.000626513
-0.000644675
-0.000661864
-0.000562409
-0.000571061
-0.000588725
-0.000608148
-0.000626841
-0.000644757
-0.000661755
-0.000563599
-0.000572331
-0.000589815
-0.000608927
-0.000627325
-0.000644995
-0.000661794
-0.000564711
-0.000573533
-0.000590884
-0.000609738
-0.000627876
-0.00064532
-0.000661928
-0.000565655
-0.000574573
-0.000591829
-0.000610479
-0.000628405
-0.000645658
-0.0006621
-0.000640864
-0.000635586
-0.000639476
-0.000648445
-0.000658579
-0.000669191
-0.000679883
-0.000639673
-0.000633794
-0.000638118
-0.000647156
-0.000657273
-0.00066796
-0.000678763
-0.000639075
-0.000633443
-0.00063784
-0.000646733
-0.000656733
-0.000667364
-0.000678143
-0.000639217
-0.000633829
-0.000638182
-0.000646882
-0.000656711
-0.000667209
-0.000677887
-0.00063959
-0.000634403
-0.000638717
-0.000647234
-0.00065688
-0.000667226
-0.000677782
-0.000640033
-0.000635058
-0.000639348
-0.000647689
-0.000657157
-0.000667353
-0.000677783
-0.00064046
-0.00063569
-0.000639968
-0.000648152
-0.000657464
-0.000667527
-0.000677842
-0.000707123
-0.000691883
-0.000685542
-0.000685457
-0.000687619
-0.000691281
-0.000695863
-0.000705964
-0.000689844
-0.000683967
-0.000684041
-0.000686267
-0.000690057
-0.000694784
-0.000704949
-0.000689029
-0.000683307
-0.000683348
-0.000685553
-0.000689358
-0.000694116
-0.000704572
-0.000688928
-0.000683242
-0.000683184
-0.000685304
-0.000689051
-0.000693767
-0.000704457
-0.000689076
-0.000683417
-0.000683242
-0.00068525
-0.000688913
-0.000693563
-0.000704467
-0.000689367
-0.000683749
-0.00068344
-0.000685324
-0.000688894
-0.000693467
-0.000704534
-0.000689695
-0.000684136
-0.000683696
-0.00068546
-0.000688942
-0.00069344
-0.000762357
-0.000740111
-0.000725846
-0.000718581
-0.000714185
-0.000711832
-0.000710923
-0.000761547
-0.000738076
-0.000724273
-0.000717227
-0.00071291
-0.000710692
-0.000709931
-0.000760441
-0.000737066
-0.000723454
-0.000716438
-0.000712142
-0.000709973
-0.000709269
-0.000759809
-0.000736666
-0.000723135
-0.000716091
-0.000711766
-0.000709585
-0.000708876
-0.000759448
-0.00073651
-0.000723037
-0.000715945
-0.00071157
-0.00070935
-0.000708612
-0.000759242
-0.000736521
-0.000723099
-0.000715943
-0.000711503
-0.000709232
-0.000708452
-0.000759137
-0.000736622
-0.000723246
-0.000716021
-0.000711515
-0.00070919
-0.000708364
-0.000658472
-0.000683676
-0.000707704
-0.000731572
-0.000756271
-0.000782624
-0.000657703
-0.000682862
-0.000706896
-0.000730759
-0.000755385
-0.00078171
-0.000657433
-0.000682405
-0.000706308
-0.000730051
-0.00075453
-0.000780636
-0.000657477
-0.000682196
-0.000705899
-0.000729454
-0.000753729
-0.000779579
-0.000657629
-0.000682088
-0.000705576
-0.000728931
-0.000752993
-0.000778595
-0.000657845
-0.000682057
-0.000705334
-0.000728495
-0.000752356
-0.000777734
-0.000658073
-0.000682071
-0.000705163
-0.00072815
-0.000751837
-0.000777026
-0.000669006
-0.000689458
-0.000709127
-0.000728675
-0.00074871
-0.000769751
-0.000668068
-0.000688571
-0.000708314
-0.000727919
-0.000747974
-0.000769039
-0.000667614
-0.000688026
-0.00070771
-0.00072726
-0.000747237
-0.000768178
-0.000667487
-0.00068773
-0.000707281
-0.000726705
-0.000746543
-0.00076731
-0.000667484
-0.000687542
-0.000706938
-0.000726216
-0.000745902
-0.00076649
-0.000667564
-0.000687439
-0.000706677
-0.000725808
-0.000745342
-0.000765763
-0.000667682
-0.000687393
-0.000706487
-0.000725484
-0.000744883
-0.000765159
-0.00067965
-0.000695047
-0.000709983
-0.000724804
-0.000739812
-0.000755191
-0.000678648
-0.000694154
-0.000709204
-0.000724122
-0.000739196
-0.000754655
-0.000678084
-0.000693568
-0.000708614
-0.000723526
-0.000738578
-0.000753984
-0.000677836
-0.000693219
-0.000708185
-0.000723022
-0.000737991
-0.000753291
-0.000677718
-0.000692977
-0.00070784
-0.000722579
-0.000737445
-0.000752627
-0.000677694
-0.000692823
-0.000707573
-0.000722207
-0.000736966
-0.00075203
-0.000677725
-0.000692733
-0.000707377
-0.000721911
-0.00073657
-0.000751529
-0.00069037
-0.000700606
-0.000710653
-0.000720599
-0.000730501
-0.000740288
-0.000689379
-0.000699753
-0.000709934
-0.000719995
-0.000729985
-0.000739887
-0.000688763
-0.000699161
-0.000709375
-0.000719465
-0.000729471
-0.000739371
-0.000688434
-0.000698783
-0.00070896
-0.000719015
-0.000728982
-0.000738825
-0.000688233
-0.000698507
-0.000708621
-0.000718618
-0.000728522
-0.000738295
-0.00068813
-0.000698317
-0.000708356
-0.000718284
-0.000728117
-0.000737812
-0.000688091
-0.000698194
-0.000708159
-0.000718017
-0.00072778
-0.000737404
-0.00070088
-0.00070607
-0.00071129
-0.000716433
-0.000721381
-0.000725868
-0.000699946
-0.000705282
-0.00071064
-0.000715902
-0.000720935
-0.000725562
-0.000699321
-0.00070471
-0.000710122
-0.000715435
-0.000720513
-0.000725163
-0.000698947
-0.000704323
-0.000709729
-0.000715036
-0.000720104
-0.000724734
-0.000698692
-0.000704029
-0.000709404
-0.000714681
-0.000719718
-0.000724311
-0.000698532
-0.000703817
-0.000709146
-0.000714381
-0.000719375
-0.000723923
-0.000698441
-0.00070367
-0.000708951
-0.000714139
-0.000719089
-0.000723592
-0.000710878
-0.000711306
-0.000711926
-0.000712498
-0.000712783
-0.000712389
-0.000710029
-0.000710597
-0.000711348
-0.000712035
-0.000712399
-0.000712149
-0.000709428
-0.000710062
-0.000710878
-0.000711625
-0.000712045
-0.000711834
-0.000709039
-0.000709683
-0.000710512
-0.000711271
-0.0007117
-0.000711492
-0.000708755
-0.000709386
-0.000710206
-0.000710956
-0.000711374
-0.000711153
-0.00070856
-0.000709163
-0.000709959
-0.000710688
-0.000711084
-0.000710839
-0.000708434
-0.000709003
-0.00070977
-0.000710471
-0.000710841
-0.000710569
-0.000811883
-0.000844774
-0.000881333
-0.000920473
-0.00095977
-0.000990203
-0.000991969
-0.000810753
-0.000843262
-0.000879226
-0.000917393
-0.000955729
-0.000986663
-0.000988949
-0.000809354
-0.000841402
-0.000876762
-0.000914119
-0.000951505
-0.000982122
-0.00098496
-0.000807965
-0.000839578
-0.000874413
-0.000911159
-0.000947913
-0.000978289
-0.000981516
-0.000806676
-0.000837913
-0.000872308
-0.000908576
-0.000944885
-0.000975099
-0.000978571
-0.000805552
-0.00083648
-0.000870526
-0.000906431
-0.000942416
-0.000972501
-0.000976119
-0.000804632
-0.000835321
-0.000869106
-0.000904751
-0.000940513
-0.000970507
-0.000974214
-0.00079236
-0.000816702
-0.000842258
-0.000867784
-0.000891143
-0.000905196
-0.000901361
-0.00079156
-0.000815713
-0.000840958
-0.000865969
-0.000888997
-0.000903632
-0.000899469
-0.000790506
-0.000814386
-0.000839281
-0.000863831
-0.000886392
-0.000901095
-0.00089743
-0.000789415
-0.000813012
-0.000837579
-0.000861765
-0.000883982
-0.000898665
-0.00089542
-0.00078838
-0.000811721
-0.000836004
-0.000859897
-0.000881869
-0.000896533
-0.00089356
-0.00078746
-0.000810584
-0.000834634
-0.000858298
-0.000880088
-0.000894733
-0.000891946
-0.000786697
-0.000809647
-0.000833517
-0.000857014
-0.000878675
-0.000893305
-0.000890645
-0.000771114
-0.000787373
-0.000803211
-0.000817453
-0.0008284
-0.000830215
-0.000819269
-0.000770581
-0.000786787
-0.000802511
-0.000816522
-0.000827439
-0.000829815
-0.00081803
-0.000769816
-0.000785883
-0.000801431
-0.000815207
-0.000825919
-0.00082848
-0.00081703
-0.000768987
-0.000784885
-0.000800245
-0.000813821
-0.000824365
-0.000827004
-0.000815927
-0.000768182
-0.000783919
-0.000799108
-0.000812519
-0.000822944
-0.000825641
-0.000814833
-0.000767454
-0.000783047
-0.00079809
-0.00081137
-0.000821708
-0.000824449
-0.00081384
-0.00076684
-0.000782316
-0.000797243
-0.000810424
-0.000820701
-0.000823474
-0.000813008
-0.000749888
-0.000758886
-0.000766449
-0.00077153
-0.000772836
-0.000765375
-0.000747446
-0.000749545
-0.00075857
-0.000766128
-0.000771127
-0.000772518
-0.000765538
-0.000746476
-0.000749001
-0.000757972
-0.000765462
-0.000770359
-0.00077168
-0.000764901
-0.000746018
-0.000748382
-0.000757264
-0.000764658
-0.000769457
-0.00077071
-0.000764052
-0.000745482
-0.000747768
-0.000756556
-0.000763856
-0.000768571
-0.000769781
-0.000763225
-0.000744908
-0.000747202
-0.000755902
-0.000763118
-0.000767766
-0.000768948
-0.000762473
-0.000744358
-0.000746718
-0.000755343
-0.00076249
-0.000767087
-0.000768253
-0.000761842
-0.000743877
-0.000729685
-0.000732309
-0.000732915
-0.000730601
-0.000724418
-0.00070981
-0.000685038
-0.000729466
-0.000732155
-0.000732805
-0.000730472
-0.0007244
-0.000710197
-0.000684207
-0.000729078
-0.000731765
-0.000732405
-0.000730039
-0.000723956
-0.000709933
-0.000684021
-0.000728618
-0.000731267
-0.000731867
-0.000729463
-0.000723365
-0.000709461
-0.000683805
-0.000728152
-0.000730752
-0.000731308
-0.00072887
-0.000722773
-0.000708974
-0.00068355
-0.000727714
-0.000730265
-0.000730778
-0.000728314
-0.000722224
-0.000708519
-0.000683293
-0.000727336
-0.000729842
-0.000730318
-0.000727833
-0.000721754
-0.000708127
-0.000683058
-0.000711033
-0.000708144
-0.000702946
-0.000694693
-0.0006825
-0.000661858
-0.000632717
-0.000710886
-0.000708074
-0.000702932
-0.000694672
-0.000682635
-0.000662381
-0.000631711
-0.000710602
-0.000707814
-0.000702687
-0.000694419
-0.000682396
-0.000662306
-0.000631596
-0.000710256
-0.000707458
-0.000702322
-0.000694045
-0.00068203
-0.00066204
-0.000631499
-0.000709899
-0.00070708
-0.000701929
-0.000693644
-0.000681648
-0.000661745
-0.000631352
-0.000709559
-0.000706717
-0.000701546
-0.000693257
-0.000681282
-0.000661458
-0.000631198
-0.000709263
-0.000706396
-0.000701208
-0.000692915
-0.00068096
-0.000661205
-0.000631056
-0.000384761
-0.000437255
-0.00049147
-0.000535509
-0.000572374
-0.00060439
-0.000632695
-0.000385974
-0.00043842
-0.000492481
-0.000536319
-0.000572988
-0.000604826
-0.000632975
-0.000386559
-0.000438989
-0.00049298
-0.000536724
-0.000573298
-0.000605047
-0.000633118
-0.000386558
-0.000438988
-0.000492979
-0.000536723
-0.000573297
-0.000605047
-0.000633118
-0.000385971
-0.000438418
-0.000492479
-0.000536318
-0.000572987
-0.000604825
-0.000632974
-0.000384757
-0.000437251
-0.000491467
-0.000535506
-0.000572372
-0.000604389
-0.000632694
-0.00048052
-0.00050844
-0.000542279
-0.000572918
-0.000600076
-0.000624652
-0.000647077
-0.00048132
-0.000509249
-0.000543005
-0.000573508
-0.000600524
-0.000624967
-0.000647272
-0.00048171
-0.000509649
-0.000543367
-0.000573805
-0.000600752
-0.000625128
-0.000647374
-0.00048171
-0.000509648
-0.000543366
-0.000573805
-0.000600752
-0.000625128
-0.000647374
-0.000481318
-0.000509247
-0.000543004
-0.000573507
-0.000600523
-0.000624966
-0.000647272
-0.000480517
-0.000508437
-0.000542277
-0.000572916
-0.000600074
-0.000624651
-0.000647077
-0.000566377
-0.000575375
-0.00059257
-0.000611075
-0.000628845
-0.000645952
-0.000662263
-0.000566862
-0.000575909
-0.000593072
-0.000611487
-0.000629156
-0.000646165
-0.000662386
-0.000567104
-0.000576175
-0.000593324
-0.000611696
-0.000629315
-0.000646276
-0.000662452
-0.000567103
-0.000576175
-0.000593323
-0.000611695
-0.000629315
-0.000646275
-0.000662452
-0.00056686
-0.000575908
-0.000593071
-0.000611486
-0.000629155
-0.000646164
-0.000662386
-0.000566375
-0.000575372
-0.000592568
-0.000611074
-0.000628844
-0.000645951
-0.000662263
-0.000640818
-0.000636202
-0.000640475
-0.000648543
-0.000657737
-0.000667696
-0.000677918
-0.000641077
-0.000636545
-0.000640815
-0.000648816
-0.000657936
-0.000667824
-0.000677982
-0.000641213
-0.000636714
-0.000640983
-0.000648955
-0.00065804
-0.000667893
-0.000678019
-0.000641212
-0.000636713
-0.000640982
-0.000648955
-0.00065804
-0.000667893
-0.000678019
-0.000641076
-0.000636544
-0.000640814
-0.000648816
-0.000657936
-0.000667824
-0.000677982
-0.000640816
-0.0006362
-0.000640473
-0.000648542
-0.000657736
-0.000667695
-0.000677918
-0.00070463
-0.000689981
-0.000684469
-0.000683931
-0.000685602
-0.000689012
-0.000693447
-0.000704729
-0.000690189
-0.000684687
-0.000684096
-0.000685712
-0.000689074
-0.000693465
-0.000704789
-0.000690289
-0.00068479
-0.000684179
-0.000685771
-0.000689109
-0.000693477
-0.000704788
-0.000690289
-0.000684789
-0.000684179
-0.000685771
-0.000689109
-0.000693477
-0.000704729
-0.000690189
-0.000684687
-0.000684095
-0.000685712
-0.000689074
-0.000693465
-0.000704629
-0.00068998
-0.000684468
-0.00068393
-0.000685601
-0.000689012
-0.000693448
-0.000759096
-0.000736735
-0.000723395
-0.000716116
-0.000711557
-0.000709187
-0.000708321
-0.000759091
-0.000736814
-0.000723497
-0.000716191
-0.000711599
-0.000709198
-0.000708303
-0.000759097
-0.000736851
-0.000723545
-0.000716231
-0.000711624
-0.000709207
-0.000708297
-0.000759097
-0.000736851
-0.000723545
-0.000716231
-0.000711624
-0.000709207
-0.000708297
-0.000759091
-0.000736813
-0.000723496
-0.000716191
-0.000711599
-0.000709198
-0.000708303
-0.000759096
-0.000736735
-0.000723394
-0.000716116