/*--------------------------------*- C++ -*----------------------------------*\
  =========                 |
  \\      /  F ield         | OpenFOAM: The Open Source CFD Toolbox
   \\    /   O peration     | Website:  https://openfoam.org
    \\  /    A nd           | Version:  7
     \\/     M anipulation  |
\*---------------------------------------------------------------------------*/
FoamFile
{
    version     2.0;
    format      ascii;
    class       volVectorField;
    location    "4.25";
    object      U;
}
// * * * * * * * * * * * * * * * * * * * * * * * * * * * * * * * * * * * * * //

dimensions      [0 1 -1 0 0 0 0];

internalField   nonuniform List<vector> 
7784
(
(1.16911 -2.71277e-05 -3.04395e-05)
(1.16914 -2.2916e-05 -2.34866e-05)
(1.16918 -1.70976e-05 -1.30238e-05)
(1.16919 -1.19887e-05 -4.26199e-06)
(1.1692 -8.25334e-06 4.55534e-07)
(1.1692 -5.66906e-06 2.02512e-06)
(1.1692 -3.89859e-06 2.00102e-06)
(1.16912 -1.82402e-05 -2.45423e-05)
(1.16915 -1.52929e-05 -1.90758e-05)
(1.16918 -1.17945e-05 -1.06216e-05)
(1.1692 -8.9234e-06 -3.24518e-06)
(1.1692 -6.71228e-06 8.05334e-07)
(1.1692 -4.9866e-06 2.11067e-06)
(1.1692 -3.65414e-06 1.98252e-06)
(1.16912 -9.73503e-06 -2.03733e-05)
(1.16916 -8.93245e-06 -1.58279e-05)
(1.16918 -7.79526e-06 -8.69722e-06)
(1.1692 -6.57722e-06 -2.34846e-06)
(1.1692 -5.36914e-06 1.15013e-06)
(1.1692 -4.24969e-06 2.21852e-06)
(1.1692 -3.27463e-06 1.98145e-06)
(1.16913 -6.37557e-06 -1.83964e-05)
(1.16916 -6.21271e-06 -1.42285e-05)
(1.16919 -5.78229e-06 -7.6887e-06)
(1.1692 -5.13125e-06 -1.84603e-06)
(1.1692 -4.36229e-06 1.3573e-06)
(1.1692 -3.57908e-06 2.2903e-06)
(1.1692 -2.85408e-06 1.98399e-06)
(1.16913 -4.92327e-06 -1.7665e-05)
(1.16916 -4.8257e-06 -1.36221e-05)
(1.16919 -4.53687e-06 -7.29482e-06)
(1.1692 -4.08394e-06 -1.64889e-06)
(1.1692 -3.53724e-06 1.43325e-06)
(1.1692 -2.96158e-06 2.30319e-06)
(1.1692 -2.41928e-06 1.9746e-06)
(1.16913 -3.90824e-06 -1.74737e-05)
(1.16916 -3.8062e-06 -1.3461e-05)
(1.16919 -3.56655e-06 -7.19143e-06)
(1.1692 -3.21992e-06 -1.60361e-06)
(1.1692 -2.81233e-06 1.44212e-06)
(1.1692 -2.38112e-06 2.28989e-06)
(1.1692 -1.97586e-06 1.96109e-06)
(1.16913 -3.01968e-06 -1.74642e-05)
(1.16916 -2.92269e-06 -1.34514e-05)
(1.16919 -2.72212e-06 -7.18806e-06)
(1.1692 -2.45262e-06 -1.60974e-06)
(1.16921 -2.14725e-06 1.42977e-06)
(1.1692 -1.82781e-06 2.26861e-06)
(1.1692 -1.53168e-06 1.94874e-06)
(0.610539 -5.98117e-05 -9.2155e-05)
(0.610591 -5.17654e-05 -7.60868e-05)
(0.610643 -3.97306e-05 -5.00576e-05)
(0.610681 -2.82429e-05 -2.65358e-05)
(0.610706 -1.94305e-05 -1.19382e-05)
(0.610722 -1.325e-05 -4.88518e-06)
(0.610733 -9.03425e-06 -2.15403e-06)
(0.610553 -4.87031e-05 -7.99104e-05)
(0.610603 -4.24853e-05 -6.72291e-05)
(0.610651 -3.35498e-05 -4.52622e-05)
(0.610686 -2.49429e-05 -2.43885e-05)
(0.610709 -1.80136e-05 -1.10551e-05)
(0.610724 -1.28323e-05 -4.54162e-06)
(0.610734 -9.09578e-06 -2.04719e-06)
(0.610567 -3.54173e-05 -6.99412e-05)
(0.610615 -3.21565e-05 -5.94779e-05)
(0.61066 -2.67669e-05 -4.05023e-05)
(0.610692 -2.09806e-05 -2.19149e-05)
(0.610713 -1.58727e-05 -9.86584e-06)
(0.610727 -1.17636e-05 -3.98332e-06)
(0.610737 -8.62934e-06 -1.80112e-06)
(0.610577 -2.63532e-05 -6.41805e-05)
(0.610624 -2.45033e-05 -5.47195e-05)
(0.610668 -2.1094e-05 -3.7296e-05)
(0.610698 -1.71508e-05 -2.00615e-05)
(0.610718 -1.34448e-05 -8.87107e-06)
(0.61073 -1.02985e-05 -3.45876e-06)
(0.610739 -7.7699e-06 -1.5292e-06)
(0.610583 -1.9965e-05 -6.13077e-05)
(0.61063 -1.87193e-05 -5.22497e-05)
(0.610673 -1.64106e-05 -3.55199e-05)
(0.610702 -1.36798e-05 -1.89498e-05)
(0.610721 -1.10223e-05 -8.22007e-06)
(0.610733 -8.67471e-06 -3.08696e-06)
(0.610741 -6.69614e-06 -1.31034e-06)
(0.610587 -1.49844e-05 -5.99997e-05)
(0.610634 -1.41026e-05 -5.10856e-05)
(0.610676 -1.25086e-05 -3.46295e-05)
(0.610705 -1.06144e-05 -1.83453e-05)
(0.610724 -8.72837e-06 -7.83154e-06)
(0.610735 -7.01151e-06 -2.84421e-06)
(0.610743 -5.5095e-06 -1.15062e-06)
(0.61059 -1.09293e-05 -5.94181e-05)
(0.610636 -1.03105e-05 -5.05449e-05)
(0.610678 -9.21439e-06 -3.41862e-05)
(0.610707 -7.91272e-06 -1.80176e-05)
(0.610725 -6.59868e-06 -7.60106e-06)
(0.610737 -5.3785e-06 -2.68959e-06)
(0.610744 -4.28206e-06 -1.03838e-06)
(0.262691 -6.07098e-05 -0.000143864)
(0.262729 -5.32836e-05 -0.000127896)
(0.262768 -4.18449e-05 -9.68978e-05)
(0.262802 -3.0475e-05 -6.43677e-05)
(0.26283 -2.14251e-05 -4.01099e-05)
(0.262852 -1.487e-05 -2.49089e-05)
(0.262869 -1.02622e-05 -1.60789e-05)
(0.262703 -5.38955e-05 -0.000132368)
(0.262739 -4.76727e-05 -0.000119408)
(0.262775 -3.8264e-05 -9.17662e-05)
(0.262807 -2.87852e-05 -6.15587e-05)
(0.262834 -2.09507e-05 -3.85984e-05)
(0.262855 -1.50087e-05 -2.40913e-05)
(0.262871 -1.06564e-05 -1.56324e-05)
(0.262715 -4.38036e-05 -0.000120872)
(0.26275 -3.96055e-05 -0.000110106)
(0.262785 -3.28007e-05 -8.54488e-05)
(0.262815 -2.55765e-05 -5.77226e-05)
(0.262839 -1.92633e-05 -3.63768e-05)
(0.262859 -1.42244e-05 -2.28219e-05)
(0.262874 -1.03669e-05 -1.4897e-05)
(0.262725 -3.46891e-05 -0.000112685)
(0.26276 -3.18112e-05 -0.000103099)
(0.262793 -2.6979e-05 -8.03339e-05)
(0.262821 -2.16608e-05 -5.43854e-05)
(0.262845 -1.68052e-05 -3.43167e-05)
(0.262863 -1.27547e-05 -2.15743e-05)
(0.262877 -9.51754e-06 -1.41325e-05)
(0.262732 -2.69857e-05 -0.000107631)
(0.262766 -2.49376e-05 -9.86449e-05)
(0.262799 -2.15096e-05 -7.69214e-05)
(0.262827 -1.76732e-05 -5.20233e-05)
(0.262849 -1.40572e-05 -3.27631e-05)
(0.262867 -1.09258e-05 -2.057e-05)
(0.26288 -8.32308e-06 -1.34832e-05)
(0.262736 -2.04815e-05 -0.000104732)
(0.262771 -1.90258e-05 -9.60333e-05)
(0.262803 -1.66189e-05 -7.48324e-05)
(0.26283 -1.39006e-05 -5.04922e-05)
(0.262852 -1.12756e-05 -3.16911e-05)
(0.262869 -8.93218e-06 -1.9833e-05)
(0.262882 -6.92064e-06 -1.29815e-05)
(0.262739 -1.4985e-05 -0.000103094)
(0.262774 -1.39736e-05 -9.45265e-05)
(0.262806 -1.23176e-05 -7.35792e-05)
(0.262833 -1.04371e-05 -4.9526e-05)
(0.262855 -8.58929e-06 -3.09771e-05)
(0.262871 -6.90191e-06 -1.93149e-05)
(0.262884 -5.41759e-06 -1.26141e-05)
(1.1692 -2.69766e-06 1.43272e-06)
(1.1692 -1.85827e-06 8.13663e-07)
(1.1692 -1.24292e-06 2.67323e-07)
(1.1692 -7.66245e-07 -2.22191e-07)
(1.1692 -3.73376e-07 -7.30587e-07)
(1.1692 -1.95037e-08 -1.35923e-06)
(1.1692 -2.67592e-06 1.39227e-06)
(1.1692 -1.9418e-06 7.7795e-07)
(1.1692 -1.37209e-06 2.44323e-07)
(1.1692 -9.19035e-07 -2.32249e-07)
(1.1692 -5.51121e-07 -7.28117e-07)
(1.1692 -2.42377e-07 -1.33605e-06)
(1.1692 -2.49892e-06 1.36716e-06)
(1.1692 -1.87864e-06 7.57985e-07)
(1.1692 -1.37396e-06 2.33029e-07)
(1.1692 -9.63201e-07 -2.35134e-07)
(1.1692 -6.28508e-07 -7.22732e-07)
(1.16921 -3.55266e-07 -1.3224e-06)
(1.1692 -2.23928e-06 1.35633e-06)
(1.1692 -1.72414e-06 7.5252e-07)
(1.1692 -1.29205e-06 2.32244e-07)
(1.1692 -9.34141e-07 -2.32006e-07)
(1.1692 -6.40399e-07 -7.1535e-07)
(1.16921 -4.02228e-07 -1.31022e-06)
(1.1692 -1.93653e-06 1.34767e-06)
(1.1692 -1.51762e-06 7.50663e-07)
(1.1692 -1.15854e-06 2.34304e-07)
(1.1692 -8.56228e-07 -2.27291e-07)
(1.1692 -6.05033e-07 -7.0772e-07)
(1.16921 -3.99047e-07 -1.29872e-06)
(1.1692 -1.604e-06 1.34039e-06)
(1.1692 -1.27391e-06 7.49968e-07)
(1.1692 -9.85982e-07 2.36994e-07)
(1.1692 -7.40087e-07 -2.22571e-07)
(1.1692 -5.32848e-07 -7.00808e-07)
(1.16921 -3.59751e-07 -1.28877e-06)
(1.1692 -1.25551e-06 1.33518e-06)
(1.1692 -1.00713e-06 7.50401e-07)
(1.1692 -7.87106e-07 2.39729e-07)
(1.1692 -5.9712e-07 -2.18421e-07)
(1.1692 -4.34885e-07 -6.95084e-07)
(1.16921 -2.96875e-07 -1.28081e-06)
(0.61074 -6.14711e-06 -1.3941e-06)
(0.610746 -4.11525e-06 -1.37247e-06)
(0.61075 -2.60909e-06 -1.62226e-06)
(0.610752 -1.41343e-06 -2.03849e-06)
(0.610754 -3.72928e-07 -2.66844e-06)
(0.610756 6.58444e-07 -3.60212e-06)
(0.610741 -6.40425e-06 -1.37329e-06)
(0.610746 -4.42827e-06 -1.37559e-06)
(0.61075 -2.91896e-06 -1.62597e-06)
(0.610753 -1.70488e-06 -2.03551e-06)
(0.610755 -6.58684e-07 -2.65722e-06)
(0.610756 3.38354e-07 -3.56985e-06)
(0.610743 -6.25069e-06 -1.25907e-06)
(0.610748 -4.42875e-06 -1.3141e-06)
(0.610751 -2.99838e-06 -1.58784e-06)
(0.610754 -1.82989e-06 -2.00753e-06)
(0.610755 -8.22201e-07 -2.63264e-06)
(0.610757 1.11115e-07 -3.54984e-06)
(0.610745 -5.76217e-06 -1.1067e-06)
(0.610749 -4.16692e-06 -1.21922e-06)
(0.610752 -2.88107e-06 -1.52622e-06)
(0.610754 -1.81285e-06 -1.9661e-06)
(0.610756 -8.85953e-07 -2.60406e-06)
(0.610757 -3.40722e-08 -3.53301e-06)
(0.610747 -5.06527e-06 -9.69057e-07)
(0.61075 -3.72797e-06 -1.1268e-06)
(0.610753 -2.6228e-06 -1.46349e-06)
(0.610755 -1.68868e-06 -1.92335e-06)
(0.610757 -8.7058e-07 -2.57511e-06)
(0.610758 -1.18293e-07 -3.51559e-06)
(0.610748 -4.23472e-06 -8.59282e-07)
(0.610752 -3.16163e-06 -1.04864e-06)
(0.610754 -2.25569e-06 -1.40829e-06)
(0.610756 -1.47763e-06 -1.88475e-06)
(0.610758 -7.89375e-07 -2.54856e-06)
(0.610759 -1.54169e-07 -3.49876e-06)
(0.610749 -3.33131e-06 -7.76591e-07)
(0.610752 -2.51442e-06 -9.86878e-07)
(0.610755 -1.81341e-06 -1.36344e-06)
(0.610757 -1.2031e-06 -1.85271e-06)
(0.610758 -6.58297e-07 -2.52612e-06)
(0.610759 -1.533e-07 -3.48399e-06)
(0.262881 -7.01476e-06 -1.09615e-05)
(0.26289 -4.65992e-06 -7.82826e-06)
(0.262895 -2.86185e-06 -5.76136e-06)
(0.262898 -1.38535e-06 -4.32335e-06)
(0.262899 -4.86515e-08 -3.28049e-06)
(0.262897 1.33394e-06 -2.39742e-06)
(0.262883 -7.47511e-06 -1.07129e-05)
(0.262891 -5.09643e-06 -7.68424e-06)
(0.262896 -3.24099e-06 -5.67651e-06)
(0.262899 -1.7051e-06 -4.274e-06)
(0.262899 -3.2725e-07 -3.25505e-06)
(0.262898 1.05539e-06 -2.39987e-06)
(0.262885 -7.43404e-06 -1.02802e-05)
(0.262892 -5.17023e-06 -7.42533e-06)
(0.262897 -3.36573e-06 -5.52191e-06)
(0.2629 -1.85421e-06 -4.18749e-06)
(0.2629 -4.97923e-07 -3.22038e-06)
(0.262899 8.26048e-07 -2.42031e-06)
(0.262887 -6.9616e-06 -9.80797e-06)
(0.262894 -4.92712e-06 -7.13246e-06)
(0.262899 -3.26868e-06 -5.34293e-06)
(0.262901 -1.86059e-06 -4.08685e-06)
(0.262901 -5.9393e-07 -3.18182e-06)
(0.2629 6.30657e-07 -2.44488e-06)
(0.262889 -6.19643e-06 -9.38756e-06)
(0.262896 -4.45457e-06 -6.86133e-06)
(0.2629 -3.00323e-06 -5.17204e-06)
(0.262902 -1.75331e-06 -3.988e-06)
(0.262902 -6.23278e-07 -3.14126e-06)
(0.262901 4.63696e-07 -2.46181e-06)
(0.262891 -5.22891e-06 -9.04799e-06)
(0.262897 -3.80866e-06 -6.63401e-06)
(0.262901 -2.60209e-06 -5.0243e-06)
(0.262903 -1.54913e-06 -3.89981e-06)
(0.262903 -5.91622e-07 -3.10216e-06)
(0.262902 3.27098e-07 -2.46991e-06)
(0.262893 -4.14072e-06 -8.78996e-06)
(0.262899 -3.04739e-06 -6.45596e-06)
(0.262902 -2.10381e-06 -4.90543e-06)
(0.262904 -1.27106e-06 -3.82682e-06)
(0.262904 -5.09625e-07 -3.0676e-06)
(0.262903 2.20151e-07 -2.47184e-06)
(1.16921 3.49189e-07 -2.17263e-06)
(1.16921 7.64937e-07 -3.1791e-06)
(1.16922 1.30582e-06 -4.00641e-06)
(1.16922 2.18184e-06 -3.08895e-06)
(1.16922 4.18659e-06 3.53695e-06)
(1.16919 8.67606e-06 2.07909e-05)
(1.16916 1.40026e-05 4.78004e-05)
(1.16921 3.52274e-08 -2.14326e-06)
(1.16921 2.8934e-07 -3.14763e-06)
(1.16922 5.46107e-07 -4.00127e-06)
(1.16922 9.0534e-07 -3.24036e-06)
(1.16922 1.98644e-06 2.86364e-06)
(1.16919 5.09973e-06 1.89189e-05)
(1.16916 9.21824e-06 4.44592e-05)
(1.16921 -1.39751e-07 -2.12085e-06)
(1.16921 2.67515e-08 -3.12332e-06)
(1.16922 1.54959e-07 -3.99908e-06)
(1.16922 2.87067e-07 -3.36096e-06)
(1.16922 7.19688e-07 2.31037e-06)
(1.16919 1.99262e-06 1.75492e-05)
(1.16916 3.76232e-06 4.22167e-05)
(1.16921 -2.15922e-07 -2.10333e-06)
(1.16921 -7.80378e-08 -3.10119e-06)
(1.16922 2.37985e-08 -3.98372e-06)
(1.16922 1.19919e-07 -3.40544e-06)
(1.16922 3.65558e-07 2.04616e-06)
(1.16919 1.00623e-06 1.6888e-05)
(1.16916 1.88099e-06 4.1153e-05)
(1.16921 -2.33978e-07 -2.08641e-06)
(1.16921 -1.04345e-07 -3.07833e-06)
(1.16922 2.43767e-09 -3.95775e-06)
(1.16922 1.13273e-07 -3.39845e-06)
(1.16922 3.19414e-07 1.96622e-06)
(1.16919 7.41916e-07 1.66518e-05)
(1.16916 1.27265e-06 4.07635e-05)
(1.16921 -2.16055e-07 -2.07204e-06)
(1.16921 -9.54205e-08 -3.05801e-06)
(1.16922 1.46118e-08 -3.93141e-06)
(1.16922 1.35985e-07 -3.37423e-06)
(1.16922 3.21162e-07 1.96302e-06)
(1.16919 6.27418e-07 1.65983e-05)
(1.16916 9.76598e-07 4.06641e-05)
(1.16921 -1.78704e-07 -2.06073e-06)
(1.16921 -7.3966e-08 -3.04212e-06)
(1.16922 2.77705e-08 -3.91028e-06)
(1.16922 1.42846e-07 -3.35043e-06)
(1.16922 3.01221e-07 1.98087e-06)
(1.16919 5.27896e-07 1.66041e-05)
(1.16916 7.6529e-07 4.06616e-05)
(0.610757 1.80935e-06 -4.7751e-06)
(0.610757 3.27036e-06 -5.67765e-06)
(0.610754 5.34765e-06 -4.36481e-06)
(0.610746 8.65283e-06 4.15885e-06)
(0.610724 1.45165e-05 2.87378e-05)
(0.610681 2.38582e-05 7.61927e-05)
(0.610651 3.2532e-05 0.000135231)
(0.610757 1.3843e-06 -4.74953e-06)
(0.610757 2.6211e-06 -5.68973e-06)
(0.610754 4.26959e-06 -4.52546e-06)
(0.610746 6.75237e-06 3.49972e-06)
(0.610726 1.111e-05 2.67036e-05)
(0.610684 1.84285e-05 7.12786e-05)
(0.610653 2.5591e-05 0.000127082)
(0.610757 1.04982e-06 -4.74268e-06)
(0.610757 2.09978e-06 -5.73692e-06)
(0.610755 3.42165e-06 -4.75135e-06)
(0.610747 5.27793e-06 2.7605e-06)
(0.610727 8.18414e-06 2.47239e-05)
(0.610686 1.25975e-05 6.71972e-05)
(0.610655 1.68095e-05 0.000120962)
(0.610758 8.05996e-07 -4.74356e-06)
(0.610758 1.7123e-06 -5.78097e-06)
(0.610756 2.80077e-06 -4.92436e-06)
(0.610748 4.23403e-06 2.25389e-06)
(0.610729 6.27659e-06 2.34785e-05)
(0.610688 9.07706e-06 6.48145e-05)
(0.610657 1.16309e-05 0.000117566)
(0.610759 6.17443e-07 -4.73989e-06)
(0.610759 1.39433e-06 -5.80477e-06)
(0.610756 2.29291e-06 -5.02153e-06)
(0.610749 3.41552e-06 1.98166e-06)
(0.61073 4.90335e-06 2.28397e-05)
(0.610689 6.78569e-06 6.36422e-05)
(0.610658 8.43326e-06 0.000115944)
(0.610759 4.65325e-07 -4.73332e-06)
(0.610759 1.11107e-06 -5.81429e-06)
(0.610757 1.83722e-06 -5.06852e-06)
(0.61075 2.7069e-06 1.85199e-06)
(0.610731 3.79151e-06 2.25462e-05)
(0.610691 5.07383e-06 6.31244e-05)
(0.61066 6.15533e-06 0.000115249)
(0.61076 3.38887e-07 -4.72597e-06)
(0.61076 8.47982e-07 -5.81694e-06)
(0.610758 1.40919e-06 -5.09045e-06)
(0.610751 2.06065e-06 1.79225e-06)
(0.610732 2.83648e-06 2.24164e-05)
(0.610692 3.70657e-06 6.29062e-05)
(0.610661 4.41696e-06 0.000114969)
(0.262893 2.92437e-06 -1.18176e-06)
(0.262885 4.97509e-06 1.67474e-06)
(0.262872 7.84946e-06 9.36637e-06)
(0.262852 1.21291e-05 2.80311e-05)
(0.262822 1.86523e-05 6.54395e-05)
(0.262786 2.71402e-05 0.000123098)
(0.262769 3.36289e-05 0.000181751)
(0.262893 2.58104e-06 -1.23647e-06)
(0.262885 4.45766e-06 1.5098e-06)
(0.262873 6.96968e-06 8.93871e-06)
(0.262853 1.05539e-05 2.69734e-05)
(0.262824 1.5906e-05 6.29199e-05)
(0.262789 2.30405e-05 0.000117766)
(0.26277 2.87355e-05 0.000173452)
(0.262894 2.247e-06 -1.33878e-06)
(0.262887 3.92518e-06 1.24711e-06)
(0.262874 6.0692e-06 8.32043e-06)
(0.262855 8.97291e-06 2.55827e-05)
(0.262827 1.29955e-05 6.00372e-05)
(0.262792 1.80336e-05 0.00011257)
(0.262772 2.20765e-05 0.000166141)
(0.262895 1.91649e-06 -1.44857e-06)
(0.262888 3.38463e-06 9.88352e-07)
(0.262876 5.1812e-06 7.76006e-06)
(0.262857 7.49593e-06 2.44274e-05)
(0.262829 1.04999e-05 5.78364e-05)
(0.262794 1.40369e-05 0.000108923)
(0.262775 1.68276e-05 0.000161296)
(0.262897 1.58636e-06 -1.53741e-06)
(0.262889 2.83317e-06 7.8638e-07)
(0.262877 4.30308e-06 7.35064e-06)
(0.262859 6.11218e-06 2.3642e-05)
(0.262832 8.33587e-06 5.64331e-05)
(0.262797 1.08236e-05 0.000106717)
(0.262777 1.27451e-05 0.00015846)
(0.262898 1.2646e-06 -1.60099e-06)
(0.26289 2.28307e-06 6.43721e-07)
(0.262879 3.44793e-06 7.0775e-06)
(0.26286 4.82596e-06 2.3152e-05)
(0.262833 6.44235e-06 5.56101e-05)
(0.262799 8.17218e-06 0.000105486)
(0.262779 9.4794e-06 0.000156922)
(0.262899 9.58511e-07 -1.64374e-06)
(0.262891 1.74739e-06 5.47196e-07)
(0.26288 2.62875e-06 6.90081e-06)
(0.262862 3.63958e-06 2.28531e-05)
(0.262835 4.78234e-06 5.51367e-05)
(0.2628 5.96232e-06 0.000104813)
(0.26278 6.83625e-06 0.000156106)
(1.16913 -2.15969e-06 -1.74949e-05)
(1.16916 -2.07994e-06 -1.34752e-05)
(1.16919 -1.92638e-06 -7.20588e-06)
(1.1692 -1.73048e-06 -1.62465e-06)
(1.16921 -1.51553e-06 1.4164e-06)
(1.16921 -1.29467e-06 2.25187e-06)
(1.1692 -1.09059e-06 1.93997e-06)
(1.16913 -1.29725e-06 -1.75221e-05)
(1.16916 -1.24517e-06 -1.34964e-05)
(1.16919 -1.14896e-06 -7.22088e-06)
(1.1692 -1.02995e-06 -1.63576e-06)
(1.16921 -9.02019e-07 1.40755e-06)
(1.16921 -7.7229e-07 2.24184e-06)
(1.1692 -6.52311e-07 1.9348e-06)
(1.16913 -4.31413e-07 -1.75361e-05)
(1.16916 -4.1318e-07 -1.35072e-05)
(1.16919 -3.80409e-07 -7.22841e-06)
(1.1692 -3.40552e-07 -1.64112e-06)
(1.16921 -2.98143e-07 1.40343e-06)
(1.16921 -2.55426e-07 2.23731e-06)
(1.1692 -2.15909e-07 1.93247e-06)
(1.16913 4.35178e-07 -1.75361e-05)
(1.16916 4.17705e-07 -1.35072e-05)
(1.16919 3.85227e-07 -7.22843e-06)
(1.1692 3.45306e-07 -1.64114e-06)
(1.16921 3.02675e-07 1.40341e-06)
(1.16921 2.59661e-07 2.2373e-06)
(1.1692 2.19836e-07 1.93246e-06)
(1.16913 1.30108e-06 -1.75221e-05)
(1.16916 1.2498e-06 -1.34964e-05)
(1.16919 1.1539e-06 -7.22093e-06)
(1.1692 1.03482e-06 -1.6358e-06)
(1.16921 9.06647e-07 1.40751e-06)
(1.16921 7.76596e-07 2.24182e-06)
(1.1692 6.56287e-07 1.93477e-06)
(1.16913 2.16364e-06 -1.7495e-05)
(1.16916 2.08477e-06 -1.34753e-05)
(1.16919 1.93158e-06 -7.20595e-06)
(1.1692 1.7356e-06 -1.62473e-06)
(1.16921 1.52036e-06 1.41633e-06)
(1.16921 1.29913e-06 2.25183e-06)
(1.1692 1.09466e-06 1.93993e-06)
(0.610591 -7.46622e-06 -5.91488e-05)
(0.610637 -7.05259e-06 -5.02821e-05)
(0.61068 -6.33158e-06 -3.39559e-05)
(0.610709 -5.47827e-06 -1.78342e-05)
(0.610727 -4.61059e-06 -7.46249e-06)
(0.610738 -3.79419e-06 -2.59083e-06)
(0.610745 -3.04911e-06 -9.62123e-07)
(0.610592 -4.35373e-06 -5.90199e-05)
(0.610638 -4.115e-06 -5.01511e-05)
(0.610681 -3.70389e-06 -3.38351e-05)
(0.610709 -3.21905e-06 -1.7733e-05)
(0.610727 -2.72422e-06 -7.38226e-06)
(0.610738 -2.25488e-06 -2.53109e-06)
(0.610746 -1.8228e-06 -9.14492e-07)
(0.610593 -1.42854e-06 -5.89663e-05)
(0.610639 -1.35011e-06 -5.00951e-05)
(0.610681 -1.21633e-06 -3.37821e-05)
(0.61071 -1.05905e-06 -1.76873e-05)
(0.610728 -8.98328e-07 -7.34509e-06)
(0.610739 -7.45351e-07 -2.50274e-06)
(0.610746 -6.03967e-07 -8.91543e-07)
(0.610593 1.43725e-06 -5.89663e-05)
(0.610639 1.35993e-06 -5.00952e-05)
(0.610681 1.22644e-06 -3.37822e-05)
(0.61071 1.06887e-06 -1.76874e-05)
(0.610728 9.07593e-07 -7.34515e-06)
(0.610739 7.53953e-07 -2.50279e-06)
(0.610746 6.11875e-07 -8.91592e-07)
(0.610592 4.36261e-06 -5.902e-05)
(0.610638 4.12506e-06 -5.01513e-05)
(0.610681 3.71425e-06 -3.38353e-05)
(0.610709 3.2291e-06 -1.77332e-05)
(0.610727 2.73366e-06 -7.38246e-06)
(0.610738 2.26361e-06 -2.53125e-06)
(0.610746 1.83079e-06 -9.14642e-07)
(0.610591 7.47544e-06 -5.9149e-05)
(0.610637 7.06313e-06 -5.02825e-05)
(0.61068 6.34248e-06 -3.39563e-05)
(0.610709 5.48881e-06 -1.78346e-05)
(0.610727 4.62041e-06 -7.46284e-06)
(0.610738 3.80319e-06 -2.59112e-06)
(0.610745 3.05726e-06 -9.62381e-07)
(0.262741 -1.02292e-05 -0.000102162)
(0.262776 -9.56366e-06 -9.36545e-05)
(0.262808 -8.48238e-06 -7.28317e-05)
(0.262835 -7.25102e-06 -4.89272e-05)
(0.262856 -6.02714e-06 -3.05164e-05)
(0.262873 -4.89177e-06 -1.89675e-05)
(0.262885 -3.87577e-06 -1.23596e-05)
(0.262742 -5.95571e-06 -0.00010165)
(0.262777 -5.57694e-06 -9.31695e-05)
(0.262809 -4.96515e-06 -7.24076e-05)
(0.262836 -4.2676e-06 -4.85786e-05)
(0.262857 -3.56944e-06 -3.02408e-05)
(0.262874 -2.9153e-06 -1.87545e-05)
(0.262886 -2.32358e-06 -1.21998e-05)
(0.262743 -1.95262e-06 -0.000101421)
(0.262777 -1.82933e-06 -9.29514e-05)
(0.26281 -1.63121e-06 -7.22148e-05)
(0.262836 -1.40538e-06 -4.84177e-05)
(0.262858 -1.17867e-06 -3.01116e-05)
(0.262874 -9.65271e-07 -1.86532e-05)
(0.262886 -7.71245e-07 -1.21228e-05)
(0.262743 1.9633e-06 -0.000101421)
(0.262777 1.84101e-06 -9.29516e-05)
(0.26281 1.643e-06 -7.22149e-05)
(0.262836 1.41671e-06 -4.84179e-05)
(0.262858 1.18929e-06 -3.01118e-05)
(0.262874 9.75069e-07 -1.86534e-05)
(0.262886 7.80219e-07 -1.21229e-05)
(0.262742 5.9666e-06 -0.00010165)
(0.262777 5.58889e-06 -9.317e-05)
(0.262809 4.97721e-06 -7.24081e-05)
(0.262836 4.27917e-06 -4.85791e-05)
(0.262857 3.58024e-06 -3.02412e-05)
(0.262874 2.92522e-06 -1.87549e-05)
(0.262886 2.33263e-06 -1.22001e-05)
(0.262741 1.02405e-05 -0.000102163)
(0.262776 9.57617e-06 -9.36553e-05)
(0.262808 8.49503e-06 -7.28326e-05)
(0.262835 7.2631e-06 -4.89281e-05)
(0.262856 6.03832e-06 -3.05172e-05)
(0.262873 4.90194e-06 -1.89682e-05)
(0.262885 3.88496e-06 -1.23602e-05)
(1.1692 -8.99505e-07 1.33199e-06)
(1.1692 -7.26516e-07 7.51681e-07)
(1.1692 -5.7153e-07 2.42145e-07)
(1.1692 -4.36604e-07 -2.15164e-07)
(1.1692 -3.20143e-07 -6.90773e-07)
(1.16921 -2.19548e-07 -1.275e-06)
(1.1692 -5.3996e-07 1.33025e-06)
(1.1692 -4.37946e-07 7.52685e-07)
(1.1692 -3.45845e-07 2.43798e-07)
(1.1692 -2.65256e-07 -2.12963e-07)
(1.1692 -1.95162e-07 -6.87924e-07)
(1.16921 -1.33974e-07 -1.27126e-06)
(1.1692 -1.78925e-07 1.32954e-06)
(1.1692 -1.45344e-07 7.53445e-07)
(1.1692 -1.14825e-07 2.44672e-07)
(1.1692 -8.80808e-08 -2.11856e-07)
(1.1692 -6.47321e-08 -6.86515e-07)
(1.16921 -4.42363e-08 -1.26944e-06)
(1.1692 1.82546e-07 1.32953e-06)
(1.1692 1.4868e-07 7.53435e-07)
(1.1692 1.17898e-07 2.44663e-07)
(1.1692 9.09302e-08 -2.11863e-07)
(1.1692 6.73992e-08 -6.86521e-07)
(1.16921 4.67611e-08 -1.26945e-06)
(1.1692 5.4361e-07 1.33022e-06)
(1.1692 4.41294e-07 7.52655e-07)
(1.1692 3.48922e-07 2.43773e-07)
(1.1692 2.68103e-07 -2.12985e-07)
(1.1692 1.97824e-07 -6.87943e-07)
(1.16921 1.36493e-07 -1.27128e-06)
(1.1692 9.0321e-07 1.33195e-06)
(1.1692 7.29887e-07 7.51631e-07)
(1.1692 5.7461e-07 2.42103e-07)
(1.1692 4.39444e-07 -2.152e-07)
(1.1692 3.22792e-07 -6.90806e-07)
(1.16921 2.22055e-07 -1.27503e-06)
(0.61075 -2.39262e-06 -7.17753e-07)
(0.610753 -1.82007e-06 -9.41264e-07)
(0.610756 -1.32284e-06 -1.32979e-06)
(0.610757 -8.85393e-07 -1.82835e-06)
(0.610759 -4.92051e-07 -2.50888e-06)
(0.61076 -1.26043e-07 -3.47247e-06)
(0.61075 -1.43813e-06 -6.80076e-07)
(0.610754 -1.09936e-06 -9.11549e-07)
(0.610756 -8.02871e-07 -1.30756e-06)
(0.610758 -5.40163e-07 -1.81206e-06)
(0.610759 -3.02766e-07 -2.49728e-06)
(0.61076 -8.12491e-08 -3.46469e-06)
(0.610751 -4.77472e-07 -6.61677e-07)
(0.610754 -3.65505e-07 -8.96787e-07)
(0.610756 -2.6721e-07 -1.29651e-06)
(0.610758 -1.79766e-07 -1.80393e-06)
(0.610759 -1.00527e-07 -2.49148e-06)
(0.61076 -2.64602e-08 -3.46081e-06)
(0.610751 4.84715e-07 -6.61721e-07)
(0.610754 3.72142e-07 -8.96829e-07)
(0.610756 2.73327e-07 -1.29655e-06)
(0.610758 1.85452e-07 -1.80397e-06)
(0.610759 1.05876e-07 -2.49151e-06)
(0.61076 3.15642e-08 -3.46084e-06)
(0.61075 1.44542e-06 -6.80211e-07)
(0.610754 1.10601e-06 -9.11676e-07)
(0.610756 8.08984e-07 -1.30767e-06)
(0.610758 5.45834e-07 -1.81216e-06)
(0.610759 3.08097e-07 -2.49738e-06)
(0.61076 8.6337e-08 -3.46478e-06)
(0.61075 2.39999e-06 -7.17984e-07)
(0.610753 1.82675e-06 -9.41478e-07)
(0.610756 1.32894e-06 -1.32998e-06)
(0.610757 8.9103e-07 -1.82852e-06)
(0.610759 4.97346e-07 -2.50904e-06)
(0.61076 1.31106e-07 -3.47262e-06)
(0.262894 -2.9872e-06 -8.60608e-06)
(0.262899 -2.21516e-06 -6.32621e-06)
(0.262903 -1.54093e-06 -4.81693e-06)
(0.262905 -9.40734e-07 -3.77131e-06)
(0.262905 -3.89478e-07 -3.04016e-06)
(0.262903 1.38676e-07 -2.4708e-06)
(0.262894 -1.80049e-06 -8.48836e-06)
(0.2629 -1.34161e-06 -6.24179e-06)
(0.262904 -9.3769e-07 -4.7585e-06)
(0.262905 -5.76029e-07 -3.73414e-06)
(0.262905 -2.4281e-07 -3.02126e-06)
(0.262904 7.64291e-08 -2.46902e-06)
(0.262895 -5.98827e-07 -8.43105e-06)
(0.2629 -4.46853e-07 -6.20038e-06)
(0.262904 -3.12563e-07 -4.72956e-06)
(0.262906 -1.91955e-07 -3.71558e-06)
(0.262906 -8.06312e-08 -3.01168e-06)
(0.262904 2.60521e-08 -2.46786e-06)
(0.262895 6.0702e-07 -8.43115e-06)
(0.2629 4.54345e-07 -6.20048e-06)
(0.262904 3.19454e-07 -4.72965e-06)
(0.262906 1.98351e-07 -3.71565e-06)
(0.262906 8.66417e-08 -3.01176e-06)
(0.262904 -2.03173e-08 -2.46794e-06)
(0.262894 1.80872e-06 -8.48868e-06)
(0.2629 1.34911e-06 -6.24207e-06)
(0.262904 9.44569e-07 -4.75876e-06)
(0.262905 5.82404e-07 -3.73438e-06)
(0.262905 2.488e-07 -3.02148e-06)
(0.262904 -7.07072e-08 -2.46924e-06)
(0.262894 2.99549e-06 -8.60661e-06)
(0.262899 2.22266e-06 -6.32669e-06)
(0.262903 1.54777e-06 -4.81736e-06)
(0.262905 9.47064e-07 -3.77171e-06)
(0.262905 3.9543e-07 -3.04053e-06)
(0.262903 -1.32978e-07 -2.47117e-06)
(1.16921 -1.31361e-07 -2.05266e-06)
(1.16921 -5.03577e-08 -3.03099e-06)
(1.16922 3.10499e-08 -3.89559e-06)
(1.16922 1.23911e-07 -3.33289e-06)
(1.16922 2.44903e-07 1.99855e-06)
(1.16919 4.03963e-07 1.66212e-05)
(1.16916 5.61122e-07 4.06807e-05)
(1.16921 -7.94998e-08 -2.04761e-06)
(1.16921 -2.84374e-08 -3.02417e-06)
(1.16922 2.37857e-08 -3.88673e-06)
(1.16922 8.34249e-08 -3.32214e-06)
(1.16922 1.58835e-07 2.01037e-06)
(1.16919 2.53468e-07 1.66346e-05)
(1.16916 3.43855e-07 4.06976e-05)
(1.16921 -2.58457e-08 -2.04521e-06)
(1.16921 -8.44271e-09 -3.021e-06)
(1.16922 9.49628e-09 -3.88265e-06)
(1.16922 2.99777e-08 -3.31717e-06)
(1.16922 5.55359e-08 2.01601e-06)
(1.16919 8.69528e-08 1.66413e-05)
(1.16916 1.16448e-07 4.07064e-05)
(1.16921 2.82637e-08 -2.04521e-06)
(1.16921 1.07869e-08 -3.021e-06)
(1.16922 -7.19433e-09 -3.88265e-06)
(1.16922 -2.7688e-08 -3.31718e-06)
(1.16922 -5.32272e-08 2.016e-06)
(1.16919 -8.46239e-08 1.66413e-05)
(1.16916 -1.1429e-07 4.07064e-05)
(1.16921 8.19158e-08 -2.04762e-06)
(1.16921 3.07867e-08 -3.02418e-06)
(1.16922 -2.147e-08 -3.88675e-06)
(1.16922 -8.11101e-08 -3.32216e-06)
(1.16922 -1.56489e-07 2.01034e-06)
(1.16919 -2.51097e-07 1.66345e-05)
(1.16916 -3.41661e-07 4.06976e-05)
(1.16921 1.33773e-07 -2.05268e-06)
(1.16921 5.27158e-08 -3.03102e-06)
(1.16922 -2.87036e-08 -3.89563e-06)
(1.16922 -1.2154e-07 -3.33293e-06)
(1.16922 -2.42475e-07 1.99849e-06)
(1.16919 -4.01496e-07 1.66211e-05)
(1.16916 -5.58848e-07 4.06807e-05)
(0.61076 2.30673e-07 -4.71971e-06)
(0.61076 5.97871e-07 -5.81726e-06)
(0.610758 9.97286e-07 -5.10128e-06)
(0.610751 1.45094e-06 1.76359e-06)
(0.610733 1.97425e-06 2.23574e-05)
(0.610692 2.54012e-06 6.28132e-05)
(0.610661 2.99132e-06 0.000114857)
(0.610761 1.34644e-07 -4.71536e-06)
(0.610761 3.56208e-07 -5.81698e-06)
(0.610759 5.9532e-07 -5.10686e-06)
(0.610752 8.6313e-07 1.74924e-06)
(0.610733 1.1659e-06 2.23296e-05)
(0.610693 1.486e-06 6.27724e-05)
(0.610662 1.73751e-06 0.000114812)
(0.610761 4.57469e-08 -4.7132e-06)
(0.610761 1.19753e-07 -5.81677e-06)
(0.610759 1.99363e-07 -5.10939e-06)
(0.610752 2.87926e-07 1.74299e-06)
(0.610733 3.87091e-07 2.23181e-05)
(0.610693 4.90805e-07 6.27565e-05)
(0.610662 5.71613e-07 0.000114795)
(0.610761 -4.08075e-08 -4.71323e-06)
(0.610761 -1.149e-07 -5.8168e-06)
(0.610759 -1.94524e-07 -5.10943e-06)
(0.610752 -2.83035e-07 1.74295e-06)
(0.610733 -3.8209e-07 2.2318e-05)
(0.610693 -4.85736e-07 6.27564e-05)
(0.610662 -5.66889e-07 0.000114795)
(0.610761 -1.29704e-07 -4.71546e-06)
(0.610761 -3.51333e-07 -5.81708e-06)
(0.610759 -5.90432e-07 -5.10698e-06)
(0.610752 -8.5816e-07 1.7491e-06)
(0.610733 -1.16079e-06 2.23294e-05)
(0.610693 -1.48082e-06 6.27722e-05)
(0.610662 -1.7327e-06 0.000114812)
(0.61076 -2.25732e-07 -4.71987e-06)
(0.61076 -5.92952e-07 -5.81744e-06)
(0.610758 -9.92295e-07 -5.10149e-06)
(0.610751 -1.4458e-06 1.76332e-06)
(0.610733 -1.96892e-06 2.23571e-05)
(0.610692 -2.53468e-06 6.28128e-05)
(0.610661 -2.98629e-06 0.000114857)
(0.262899 6.69996e-07 -1.67125e-06)
(0.262892 1.23098e-06 4.84088e-07)
(0.26288 1.84708e-06 6.78889e-06)
(0.262862 2.53789e-06 2.26723e-05)
(0.262836 3.2985e-06 5.4864e-05)
(0.262801 4.06389e-06 0.000104442)
(0.262781 4.62221e-06 0.000155669)
(0.2629 3.96475e-07 -1.68753e-06)
(0.262892 7.3188e-07 4.46083e-07)
(0.262881 1.09606e-06 6.72259e-06)
(0.262863 1.49841e-06 2.25684e-05)
(0.262836 1.93399e-06 5.47128e-05)
(0.262801 2.36517e-06 0.000104243)
(0.262782 2.67662e-06 0.000155441)
(0.2629 1.32856e-07 -1.69514e-06)
(0.262893 2.44418e-07 4.28171e-07)
(0.262881 3.64875e-07 6.69159e-06)
(0.262863 4.97026e-07 2.25207e-05)
(0.262836 6.3893e-07 5.46449e-05)
(0.262802 7.7827e-07 0.000104155)
(0.262782 8.78304e-07 0.000155341)
(0.2629 -1.273e-07 -1.69522e-06)
(0.262893 -2.38948e-07 4.28086e-07)
(0.262881 -3.59409e-07 6.69149e-06)
(0.262863 -4.91477e-07 2.25206e-05)
(0.262836 -6.33231e-07 5.46448e-05)
(0.262802 -7.7249e-07 0.000104155)
(0.262782 -8.72934e-07 0.000155341)
(0.2629 -3.90913e-07 -1.68777e-06)
(0.262892 -7.26379e-07 4.45822e-07)
(0.262881 -1.09053e-06 6.72229e-06)
(0.262863 -1.49277e-06 2.25681e-05)
(0.262836 -1.92817e-06 5.47124e-05)
(0.262801 -2.35927e-06 0.000104242)
(0.262782 -2.67116e-06 0.00015544)
(0.262899 -6.64424e-07 -1.67165e-06)
(0.262892 -1.22541e-06 4.83629e-07)
(0.26288 -1.84142e-06 6.78834e-06)
(0.262862 -2.53204e-06 2.26716e-05)
(0.262836 -3.29242e-06 5.48633e-05)
(0.262801 -4.05773e-06 0.000104441)
(0.262781 -4.61654e-06 0.000155669)
(1.16913 3.02381e-06 -1.74642e-05)
(1.16916 2.92784e-06 -1.34514e-05)
(1.16919 2.72774e-06 -7.18816e-06)
(1.1692 2.45815e-06 -1.60986e-06)
(1.16921 2.15242e-06 1.42966e-06)
(1.1692 1.83251e-06 2.26855e-06)
(1.1692 1.5359e-06 1.94867e-06)
(1.16913 3.91256e-06 -1.74737e-05)
(1.16916 3.81179e-06 -1.34611e-05)
(1.16919 3.57281e-06 -7.19156e-06)
(1.1692 3.22609e-06 -1.60377e-06)
(1.1692 2.818e-06 1.44197e-06)
(1.1692 2.38617e-06 2.28978e-06)
(1.1692 1.98027e-06 1.961e-06)
(1.16913 4.9277e-06 -1.7665e-05)
(1.16916 4.83178e-06 -1.36221e-05)
(1.16919 4.544e-06 -7.29492e-06)
(1.1692 4.09098e-06 -1.64907e-06)
(1.1692 3.54356e-06 1.43304e-06)
(1.1692 2.96704e-06 2.30303e-06)
(1.1692 2.42391e-06 1.97448e-06)
(1.16913 6.37986e-06 -1.83962e-05)
(1.16916 6.21904e-06 -1.42282e-05)
(1.16919 5.79028e-06 -7.68864e-06)
(1.1692 5.13933e-06 -1.8462e-06)
(1.1692 4.36938e-06 1.35704e-06)
(1.1692 3.58498e-06 2.29005e-06)
(1.1692 2.85888e-06 1.98383e-06)
(1.16912 9.73866e-06 -2.03728e-05)
(1.16916 8.9383e-06 -1.58271e-05)
(1.16918 7.80349e-06 -8.6967e-06)
(1.1692 6.58592e-06 -2.34848e-06)
(1.1692 5.37678e-06 1.14985e-06)
(1.1692 4.2558e-06 2.21817e-06)
(1.1692 3.27942e-06 1.98125e-06)
(1.16912 1.82432e-05 -2.45411e-05)
(1.16915 1.52976e-05 -1.90743e-05)
(1.16918 1.18016e-05 -1.06204e-05)
(1.1692 8.93149e-06 -3.2448e-06)
(1.1692 6.71948e-06 8.05169e-07)
(1.1692 4.99229e-06 2.11039e-06)
(1.1692 3.65849e-06 1.98238e-06)
(1.16911 2.71298e-05 -3.04382e-05)
(1.16914 2.29192e-05 -2.34846e-05)
(1.16918 1.71026e-05 -1.30221e-05)
(1.16919 1.19947e-05 -4.26133e-06)
(1.1692 8.25873e-06 4.55633e-07)
(1.1692 5.67335e-06 2.025e-06)