/*--------------------------------*- C++ -*----------------------------------*\
  =========                 |
  \\      /  F ield         | OpenFOAM: The Open Source CFD Toolbox
   \\    /   O peration     | Website:  https://openfoam.org
    \\  /    A nd           | Version:  7
     \\/     M anipulation  |
\*---------------------------------------------------------------------------*/
FoamFile
{
    version     2.0;
    format      ascii;
    class       volScalarField;
    location    "0.25";
    object      p;
}
// * * * * * * * * * * * * * * * * * * * * * * * * * * * * * * * * * * * * * //

dimensions      [0 2 -2 0 0 0 0];

internalField   nonuniform List<scalar> 
7784
(
-7.34689e-14
-1.69345e-09
-6.06013e-09
-9.59483e-09
-1.23525e-08
-1.48402e-08
-1.72627e-08
1.56042e-09
1.85216e-10
-4.94071e-09
-8.97505e-09
-1.19479e-08
-1.45886e-08
-1.71159e-08
3.17975e-09
1.89395e-09
-3.95921e-09
-8.36069e-09
-1.15191e-08
-1.42924e-08
-1.69236e-08
4.33433e-09
3.00989e-09
-3.23646e-09
-7.86748e-09
-1.11521e-08
-1.40262e-08
-1.67394e-08
5.2409e-09
3.83283e-09
-2.645e-09
-7.43359e-09
-1.08253e-08
-1.37839e-08
-1.65653e-08
5.94207e-09
4.45428e-09
-2.16258e-09
-7.0642e-09
-1.0542e-08
-1.35692e-08
-1.64059e-08
6.46186e-09
4.91385e-09
-1.78911e-09
-6.76806e-09
-1.03087e-08
-1.33872e-08
-1.62661e-08
2.22119e-09
8.42092e-10
-4.2123e-09
-8.19437e-09
-1.12367e-08
-1.40075e-08
-1.66641e-08
4.45609e-09
3.45628e-09
-2.76361e-09
-7.34071e-09
-1.06914e-08
-1.36675e-08
-1.64641e-08
6.29058e-09
5.47476e-09
-1.59818e-09
-6.62942e-09
-1.02022e-08
-1.33383e-08
-1.62546e-08
7.59944e-09
6.7564e-09
-7.94842e-10
-6.08404e-09
-9.80262e-09
-1.30542e-08
-1.60606e-08
8.58956e-09
7.65916e-09
-1.50682e-10
-5.61545e-09
-9.45482e-09
-1.28003e-08
-1.58807e-08
9.338e-09
8.32219e-09
3.61243e-10
-5.22674e-09
-9.15959e-09
-1.25785e-08
-1.57177e-08
9.88165e-09
8.80107e-09
7.48498e-10
-4.92048e-09
-8.91976e-09
-1.23931e-08
-1.55765e-08
3.09702e-09
1.4803e-09
-3.79115e-09
-7.78679e-09
-1.08694e-08
-1.37051e-08
-1.64221e-08
5.21569e-09
3.88694e-09
-2.4754e-09
-7.01405e-09
-1.03738e-08
-1.33944e-08
-1.62396e-08
6.96244e-09
5.73287e-09
-1.41649e-09
-6.35532e-09
-9.91036e-09
-1.30819e-08
-1.60389e-08
8.19479e-09
6.88958e-09
-6.74434e-10
-5.83224e-09
-9.52646e-09
-1.2808e-08
-1.58517e-08
9.12409e-09
7.72059e-09
-6.54374e-11
-5.38295e-09
-9.19166e-09
-1.25628e-08
-1.56772e-08
9.83177e-09
8.34206e-09
4.19665e-10
-5.0106e-09
-8.90701e-09
-1.23485e-08
-1.55198e-08
1.03473e-08
8.7949e-09
7.88793e-10
-4.71681e-09
-8.67623e-09
-1.21698e-08
-1.53835e-08
-1.96495e-08
-2.20202e-08
-2.44019e-08
-2.68264e-08
-2.93315e-08
-3.19659e-08
-1.9574e-08
-2.19963e-08
-2.44209e-08
-2.68887e-08
-2.94464e-08
-3.21533e-08
-1.94598e-08
-2.19424e-08
-2.44181e-08
-2.69356e-08
-2.95491e-08
-3.23236e-08
-1.93404e-08
-2.18753e-08
-2.43963e-08
-2.69562e-08
-2.96133e-08
-3.24369e-08
-1.92211e-08
-2.18006e-08
-2.43595e-08
-2.69545e-08
-2.96461e-08
-3.25052e-08
-1.91063e-08
-2.17223e-08
-2.4312e-08
-2.69345e-08
-2.96523e-08
-3.25377e-08
-1.90008e-08
-2.16443e-08
-2.42568e-08
-2.68991e-08
-2.96356e-08
-3.25392e-08
-1.92354e-08
-2.17529e-08
-2.4255e-08
-2.67808e-08
-2.93714e-08
-3.20725e-08
-1.91293e-08
-2.17139e-08
-2.42715e-08
-2.6853e-08
-2.95095e-08
-3.22992e-08
-1.9006e-08
-2.16563e-08
-2.42699e-08
-2.69054e-08
-2.96221e-08
-3.24867e-08
-1.88821e-08
-2.15883e-08
-2.42492e-08
-2.69298e-08
-2.96937e-08
-3.26109e-08
-1.87601e-08
-2.15132e-08
-2.42146e-08
-2.69322e-08
-2.97332e-08
-3.26899e-08
-1.86442e-08
-2.14355e-08
-2.4169e-08
-2.69161e-08
-2.97459e-08
-3.27326e-08
-1.85388e-08
-2.13588e-08
-2.41161e-08
-2.68843e-08
-2.97349e-08
-3.27426e-08
-1.90436e-08
-2.16012e-08
-2.41325e-08
-2.66749e-08
-2.92637e-08
-3.19364e-08
-1.89469e-08
-2.15674e-08
-2.41522e-08
-2.67481e-08
-2.9401e-08
-3.21597e-08
-1.88286e-08
-2.15127e-08
-2.41518e-08
-2.68008e-08
-2.95122e-08
-3.23425e-08
-1.87087e-08
-2.1447e-08
-2.41329e-08
-2.6826e-08
-2.95829e-08
-3.24638e-08
-1.85906e-08
-2.13749e-08
-2.41002e-08
-2.68296e-08
-2.96232e-08
-3.2543e-08
-1.84788e-08
-2.13001e-08
-2.40567e-08
-2.68152e-08
-2.96378e-08
-3.25875e-08
-1.83771e-08
-2.12264e-08
-2.40062e-08
-2.67856e-08
-2.96291e-08
-3.26003e-08
-3.47925e-08
-3.78948e-08
-4.13923e-08
-4.56257e-08
-5.1481e-08
-5.81619e-08
-5.63836e-08
-3.50862e-08
-3.8346e-08
-4.2076e-08
-4.66182e-08
-5.30447e-08
-6.09522e-08
-5.90818e-08
-3.5344e-08
-3.87182e-08
-4.25962e-08
-4.73501e-08
-5.41461e-08
-6.26501e-08
-6.0692e-08
-3.55124e-08
-3.89482e-08
-4.28995e-08
-4.77525e-08
-5.47148e-08
-6.34517e-08
-6.14206e-08
-3.56188e-08
-3.90953e-08
-4.30919e-08
-4.80069e-08
-5.50622e-08
-6.38936e-08
-6.18452e-08
-3.56788e-08
-3.91851e-08
-4.32155e-08
-4.81746e-08
-5.52886e-08
-6.41753e-08
-6.21386e-08
-3.56985e-08
-3.92244e-08
-4.32774e-08
-4.82642e-08
-5.5413e-08
-6.43334e-08
-6.23173e-08
-3.49368e-08
-3.80242e-08
-4.14242e-08
-4.53949e-08
-5.07779e-08
-5.7578e-08
-5.84407e-08
-3.52911e-08
-3.85654e-08
-4.22302e-08
-4.65662e-08
-5.25697e-08
-6.0434e-08
-6.08213e-08
-3.55751e-08
-3.89735e-08
-4.2802e-08
-4.73645e-08
-5.37422e-08
-6.22163e-08
-6.22909e-08
-3.57602e-08
-3.92285e-08
-4.31369e-08
-4.78074e-08
-5.43616e-08
-6.30432e-08
-6.29737e-08
-3.58831e-08
-3.93998e-08
-4.3364e-08
-4.81082e-08
-5.47647e-08
-6.35442e-08
-6.34347e-08
-3.59581e-08
-3.95114e-08
-4.35179e-08
-4.83152e-08
-5.50394e-08
-6.38777e-08
-6.3775e-08
-3.59904e-08
-3.95681e-08
-4.36031e-08
-4.84346e-08
-5.51984e-08
-6.40734e-08
-6.39917e-08
-3.47319e-08
-3.76882e-08
-4.0864e-08
-4.44577e-08
-4.90671e-08
-5.46902e-08
-5.58812e-08
-3.50776e-08
-3.82099e-08
-4.16345e-08
-4.5561e-08
-5.06665e-08
-5.70534e-08
-5.7662e-08
-3.53515e-08
-3.85986e-08
-4.21654e-08
-4.62827e-08
-5.16866e-08
-5.84624e-08
-5.87009e-08
-3.55308e-08
-3.88417e-08
-4.24792e-08
-4.66855e-08
-5.22211e-08
-5.91373e-08
-5.92442e-08
-3.56525e-08
-3.90103e-08
-4.26996e-08
-4.69709e-08
-5.25922e-08
-5.95815e-08
-5.96564e-08
-3.57292e-08
-3.9123e-08
-4.28532e-08
-4.71739e-08
-5.28541e-08
-5.98932e-08
-5.99798e-08
-3.57642e-08
-3.91825e-08
-4.29407e-08
-4.7294e-08
-5.30104e-08
-6.00828e-08
-6.01917e-08
6.8281e-09
5.24001e-09
-1.51545e-09
-6.54377e-09
-1.0127e-08
-1.32413e-08
-1.61495e-08
7.06358e-09
5.4536e-09
-1.33112e-09
-6.3883e-09
-9.99709e-09
-1.31327e-08
-1.60583e-08
7.18463e-09
5.56757e-09
-1.22883e-09
-6.2984e-09
-9.91813e-09
-1.30623e-08
-1.59939e-08
7.2006e-09
5.58928e-09
-1.20396e-09
-6.27168e-09
-9.88932e-09
-1.30304e-08
-1.59573e-08
7.11506e-09
5.52174e-09
-1.25452e-09
-6.30687e-09
-9.90995e-09
-1.30368e-08
-1.59491e-08
6.92754e-09
5.36389e-09
-1.38111e-09
-6.40375e-09
-9.97964e-09
-1.30813e-08
-1.59693e-08
1.02579e-08
9.13551e-09
1.02813e-09
-4.69239e-09
-8.73598e-09
-1.22463e-08
-1.54601e-08
1.04956e-08
9.35023e-09
1.21265e-09
-4.53742e-09
-8.60712e-09
-1.21393e-08
-1.53707e-08
1.06126e-08
9.45988e-09
1.31064e-09
-4.45171e-09
-8.53219e-09
-1.20727e-08
-1.53097e-08
1.06183e-08
9.47211e-09
1.32672e-09
-4.43302e-09
-8.51044e-09
-1.20468e-08
-1.52783e-08
1.05155e-08
9.38889e-09
1.26209e-09
-4.48058e-09
-8.54161e-09
-1.20619e-08
-1.52771e-08
1.03019e-08
9.20713e-09
1.11459e-09
-4.59534e-09
-8.62619e-09
-1.21185e-08
-1.53067e-08
1.0705e-08
9.11249e-09
1.05539e-09
-4.49845e-09
-8.49989e-09
-1.20288e-08
-1.52716e-08
1.09299e-08
9.3155e-09
1.23026e-09
-4.35125e-09
-8.37737e-09
-1.19269e-08
-1.51862e-08
1.10372e-08
9.41646e-09
1.32065e-09
-4.27207e-09
-8.30797e-09
-1.1865e-08
-1.51291e-08
1.10353e-08
9.42164e-09
1.33029e-09
-4.25915e-09
-8.29134e-09
-1.18436e-08
-1.51018e-08
1.09256e-08
9.3321e-09
1.25983e-09
-4.31218e-09
-8.32769e-09
-1.18635e-08
-1.51049e-08
1.07043e-08
9.14369e-09
1.10641e-09
-4.43261e-09
-8.41773e-09
-1.19251e-08
-1.51391e-08
-1.89079e-08
-2.15701e-08
-2.41972e-08
-2.68513e-08
-2.95982e-08
-3.25116e-08
-1.88301e-08
-2.15021e-08
-2.41358e-08
-2.67938e-08
-2.95423e-08
-3.24559e-08
-1.8769e-08
-2.14419e-08
-2.40738e-08
-2.67275e-08
-2.94692e-08
-3.23736e-08
-1.87262e-08
-2.13906e-08
-2.4012e-08
-2.66529e-08
-2.93788e-08
-3.22643e-08
-1.87022e-08
-2.13493e-08
-2.39513e-08
-2.65704e-08
-2.92715e-08
-3.21283e-08
-1.86977e-08
-2.13189e-08
-2.38931e-08
-2.64818e-08
-2.91486e-08
-3.19663e-08
-1.84469e-08
-2.12864e-08
-2.40591e-08
-2.68402e-08
-2.97026e-08
-3.2722e-08
-1.8371e-08
-2.12207e-08
-2.40006e-08
-2.67862e-08
-2.96512e-08
-3.26724e-08
-1.83131e-08
-2.11633e-08
-2.39417e-08
-2.67235e-08
-2.95821e-08
-3.25948e-08
-1.82745e-08
-2.11157e-08
-2.38831e-08
-2.66521e-08
-2.94954e-08
-3.24896e-08
-1.82562e-08
-2.1079e-08
-2.38262e-08
-2.6573e-08
-2.93913e-08
-3.23568e-08
-1.8259e-08
-2.10542e-08
-2.37725e-08
-2.64879e-08
-2.92712e-08
-3.21976e-08
-1.82887e-08
-2.1157e-08
-2.39522e-08
-2.67442e-08
-2.95994e-08
-3.25828e-08
-1.8216e-08
-2.10941e-08
-2.38966e-08
-2.66935e-08
-2.95515e-08
-3.25368e-08
-1.81615e-08
-2.10398e-08
-2.38405e-08
-2.66339e-08
-2.94863e-08
-3.24638e-08
-1.81266e-08
-2.09956e-08
-2.37854e-08
-2.65661e-08
-2.94037e-08
-3.23637e-08
-1.81122e-08
-2.09626e-08
-2.37323e-08
-2.64912e-08
-2.93044e-08
-3.22368e-08
-1.81193e-08
-2.0942e-08
-2.36829e-08
-2.64106e-08
-2.91898e-08
-3.20844e-08
-3.56801e-08
-3.92153e-08
-4.3279e-08
-4.82794e-08
-5.54448e-08
-6.43832e-08
-6.23846e-08
-3.5624e-08
-3.91581e-08
-4.32208e-08
-4.82216e-08
-5.53898e-08
-6.43333e-08
-6.23436e-08
-3.55305e-08
-3.90522e-08
-4.3102e-08
-4.80907e-08
-5.52486e-08
-6.41847e-08
-6.21936e-08
-3.53994e-08
-3.88969e-08
-4.29212e-08
-4.78843e-08
-5.50176e-08
-6.39323e-08
-6.19279e-08
-3.52305e-08
-3.86915e-08
-4.26762e-08
-4.75977e-08
-5.46892e-08
-6.35651e-08
-6.15331e-08
-3.50242e-08
-3.84349e-08
-4.23636e-08
-4.7224e-08
-5.42513e-08
-6.30653e-08
-6.09877e-08
-3.59816e-08
-3.95721e-08
-4.36216e-08
-4.84707e-08
-5.52547e-08
-6.41501e-08
-6.40867e-08
-3.59331e-08
-3.95245e-08
-4.35754e-08
-4.84276e-08
-5.52166e-08
-6.41188e-08
-6.40653e-08
-3.58455e-08
-3.94258e-08
-4.34654e-08
-4.8307e-08
-5.50872e-08
-6.39832e-08
-6.39287e-08
-3.57191e-08
-3.92759e-08
-4.32911e-08
-4.81082e-08
-5.48647e-08
-6.37397e-08
-6.36716e-08
-3.55537e-08
-3.90745e-08
-4.30508e-08
-4.78272e-08
-5.45424e-08
-6.33786e-08
-6.32821e-08
-3.53502e-08
-3.8821e-08
-4.27418e-08
-4.74577e-08
-5.41093e-08
-6.2883e-08
-6.27396e-08
-3.57594e-08
-3.91905e-08
-4.29632e-08
-4.73337e-08
-5.30694e-08
-6.01611e-08
-6.0289e-08
-3.57151e-08
-3.91479e-08
-4.29226e-08
-4.72965e-08
-5.30374e-08
-6.01362e-08
-6.02744e-08
-3.56328e-08
-3.90552e-08
-4.28197e-08
-4.71842e-08
-5.2917e-08
-6.00102e-08
-6.01479e-08
-3.55124e-08
-3.89128e-08
-4.26545e-08
-4.69961e-08
-5.27066e-08
-5.97799e-08
-5.99049e-08
-3.53544e-08
-3.87205e-08
-4.24256e-08
-4.67289e-08
-5.24006e-08
-5.94371e-08
-5.9535e-08
-3.51595e-08
-3.84781e-08
-4.21307e-08
-4.63772e-08
-5.19891e-08
-5.89669e-08
-5.902e-08
6.63485e-09
5.11072e-09
-1.58687e-09
-6.56327e-09
-1.00985e-08
-1.31642e-08
-1.60185e-08
6.23483e-09
4.75349e-09
-1.87698e-09
-6.78691e-09
-1.02672e-08
-1.32863e-08
-1.60975e-08
5.73185e-09
4.27761e-09
-2.25886e-09
-7.07617e-09
-1.04874e-08
-1.34497e-08
-1.62086e-08
5.12832e-09
3.65047e-09
-2.74701e-09
-7.43774e-09
-1.07645e-08
-1.366e-08
-1.63566e-08
4.34797e-09
2.74962e-09
-3.41249e-09
-7.90851e-09
-1.11247e-08
-1.39334e-08
-1.65509e-08
3.08408e-09
1.24283e-09
-4.43983e-09
-8.60316e-09
-1.16347e-08
-1.43052e-08
-1.68085e-08
1.3799e-09
-7.45615e-10
-5.69749e-09
-9.44252e-09
-1.22196e-08
-1.47077e-08
-1.70745e-08
9.97137e-09
8.91839e-09
8.7832e-10
-4.78019e-09
-8.76556e-09
-1.22174e-08
-1.53679e-08
9.5194e-09
8.50859e-09
5.44246e-10
-5.03925e-09
-8.96227e-09
-1.23603e-08
-1.54619e-08
8.94734e-09
7.95421e-09
1.00551e-10
-5.37748e-09
-9.21969e-09
-1.25506e-08
-1.55916e-08
8.25773e-09
7.2041e-09
-4.76161e-10
-5.8029e-09
-9.54537e-09
-1.27941e-08
-1.57614e-08
7.33838e-09
6.09397e-09
-1.2625e-09
-6.35834e-09
-9.96599e-09
-1.31078e-08
-1.59805e-08
5.78987e-09
4.18828e-09
-2.49809e-09
-7.18766e-09
-1.05647e-08
-1.35358e-08
-1.62716e-08
3.59732e-09
1.53315e-09
-4.17647e-09
-8.27617e-09
-1.13248e-08
-1.40476e-08
-1.66073e-08
1.03637e-08
8.84645e-09
8.6336e-10
-4.62383e-09
-8.56328e-09
-1.20296e-08
-1.52052e-08
9.8961e-09
8.42416e-09
5.2111e-10
-4.89045e-09
-8.76715e-09
-1.21788e-08
-1.53045e-08
9.29743e-09
7.84819e-09
6.63219e-11
-5.23683e-09
-9.03244e-09
-1.23754e-08
-1.54393e-08
8.54864e-09
7.0542e-09
-5.23564e-10
-5.6718e-09
-9.36523e-09
-1.26243e-08
-1.56131e-08
7.54603e-09
5.88324e-09
-1.32334e-09
-6.23146e-09
-9.78975e-09
-1.29398e-08
-1.58333e-08
5.93446e-09
3.96701e-09
-2.54422e-09
-7.04337e-09
-1.03801e-08
-1.33616e-08
-1.61211e-08
3.66422e-09
1.371e-09
-4.12472e-09
-8.08628e-09
-1.1105e-08
-1.38529e-08
-1.6446e-08
-1.87136e-08
-2.13007e-08
-2.38393e-08
-2.63893e-08
-2.90126e-08
-3.1781e-08
-1.8751e-08
-2.12968e-08
-2.37925e-08
-2.6296e-08
-2.88674e-08
-3.15762e-08
-1.88124e-08
-2.13097e-08
-2.37557e-08
-2.62058e-08
-2.87174e-08
-3.13563e-08
-1.89016e-08
-2.13426e-08
-2.37325e-08
-2.61231e-08
-2.85675e-08
-3.11265e-08
-1.90239e-08
-2.13994e-08
-2.37266e-08
-2.6052e-08
-2.84231e-08
-3.08938e-08
-1.91876e-08
-2.14852e-08
-2.37428e-08
-2.5999e-08
-2.82924e-08
-3.06675e-08
-1.93554e-08
-2.15794e-08
-2.37765e-08
-2.59753e-08
-2.82052e-08
-3.04989e-08
-1.82837e-08
-2.10427e-08
-2.37237e-08
-2.6399e-08
-2.91381e-08
-3.20148e-08
-1.83319e-08
-2.10464e-08
-2.36823e-08
-2.63095e-08
-2.89957e-08
-3.18121e-08
-1.84059e-08
-2.10678e-08
-2.36513e-08
-2.62234e-08
-2.88484e-08
-3.1594e-08
-1.85091e-08
-2.11098e-08
-2.3634e-08
-2.61443e-08
-2.87007e-08
-3.13658e-08
-1.86464e-08
-2.11757e-08
-2.36334e-08
-2.60762e-08
-2.85577e-08
-3.11334e-08
-1.88302e-08
-2.12731e-08
-2.36557e-08
-2.60249e-08
-2.8425e-08
-3.09013e-08
-1.90416e-08
-2.13927e-08
-2.37006e-08
-2.59998e-08
-2.83233e-08
-3.07033e-08
-1.81485e-08
-2.09349e-08
-2.36386e-08
-2.63267e-08
-2.90626e-08
-3.19092e-08
-1.82014e-08
-2.09431e-08
-2.36016e-08
-2.62423e-08
-2.89266e-08
-3.17148e-08
-1.82798e-08
-2.09685e-08
-2.35749e-08
-2.61613e-08
-2.87858e-08
-3.15056e-08
-1.83862e-08
-2.10137e-08
-2.35612e-08
-2.60869e-08
-2.86448e-08
-3.12873e-08
-1.85249e-08
-2.10815e-08
-2.35634e-08
-2.6023e-08
-2.85081e-08
-3.10653e-08
-1.87076e-08
-2.11796e-08
-2.35877e-08
-2.5975e-08
-2.8381e-08
-3.08426e-08
-1.89142e-08
-2.12978e-08
-2.36334e-08
-2.59525e-08
-2.82837e-08
-3.06516e-08
-3.47822e-08
-3.8127e-08
-4.19796e-08
-4.67538e-08
-5.36864e-08
-6.24051e-08
-6.02589e-08
-3.45071e-08
-3.77679e-08
-4.15205e-08
-4.61762e-08
-5.29708e-08
-6.15429e-08
-5.92993e-08
-3.42027e-08
-3.73598e-08
-4.09845e-08
-4.54812e-08
-5.20761e-08
-6.04172e-08
-5.80463e-08
-3.38747e-08
-3.6908e-08
-4.03747e-08
-4.46669e-08
-5.09792e-08
-5.89474e-08
-5.64281e-08
-3.35302e-08
-3.64185e-08
-3.96954e-08
-4.37329e-08
-4.96474e-08
-5.70067e-08
-5.4353e-08
-3.31777e-08
-3.58939e-08
-3.8935e-08
-4.2638e-08
-4.79648e-08
-5.43465e-08
-5.15881e-08
-3.28945e-08
-3.54423e-08
-3.82344e-08
-4.15745e-08
-4.62098e-08
-5.12747e-08
-4.85346e-08
-3.51104e-08
-3.85153e-08
-4.23605e-08
-4.69911e-08
-5.35484e-08
-6.22256e-08
-6.2012e-08
-3.4837e-08
-3.81579e-08
-4.19038e-08
-4.64172e-08
-5.2837e-08
-6.13638e-08
-6.10532e-08
-3.4534e-08
-3.77516e-08
-4.13707e-08
-4.57279e-08
-5.19488e-08
-6.02329e-08
-5.98039e-08
-3.42074e-08
-3.7302e-08
-4.07666e-08
-4.49262e-08
-5.08663e-08
-5.87468e-08
-5.82065e-08
-3.38634e-08
-3.68156e-08
-4.00982e-08
-4.40196e-08
-4.95637e-08
-5.67813e-08
-5.61985e-08
-3.35014e-08
-3.62789e-08
-3.93275e-08
-4.29179e-08
-4.78671e-08
-5.40746e-08
-5.36352e-08
-3.31702e-08
-3.57558e-08
-3.85261e-08
-4.17085e-08
-4.59454e-08
-5.08862e-08
-5.07821e-08
-3.49296e-08
-3.81855e-08
-4.17669e-08
-4.59337e-08
-5.14578e-08
-5.83453e-08
-5.83326e-08
-3.46675e-08
-3.78439e-08
-4.13324e-08
-4.53906e-08
-5.0788e-08
-5.75359e-08
-5.7435e-08
-3.43775e-08
-3.74568e-08
-4.08281e-08
-4.47435e-08
-4.99596e-08
-5.6484e-08
-5.62828e-08
-3.4066e-08
-3.70313e-08
-4.02616e-08
-4.39999e-08
-4.89635e-08
-5.51201e-08
-5.48429e-08
-3.37395e-08
-3.65739e-08
-3.96417e-08
-4.31706e-08
-4.77842e-08
-5.33598e-08
-5.31002e-08
-3.33939e-08
-3.60672e-08
-3.89246e-08
-4.2162e-08
-4.62705e-08
-5.09864e-08
-5.0971e-08
-3.30745e-08
-3.55652e-08
-3.81611e-08
-4.10275e-08
-4.44984e-08
-4.83471e-08
-4.88467e-08
2.33547e-09
2.77984e-10
-4.38637e-09
-8.00243e-09
-1.09564e-08
-1.37274e-08
-1.64004e-08
4.01243e-09
2.02152e-09
-3.4104e-09
-7.40797e-09
-1.05586e-08
-1.34745e-08
-1.62485e-08
5.44623e-09
3.39986e-09
-2.58035e-09
-6.85018e-09
-1.01619e-08
-1.32036e-08
-1.6072e-08
6.46166e-09
4.31142e-09
-1.94478e-09
-6.38646e-09
-9.81907e-09
-1.29569e-08
-1.59018e-08
7.25823e-09
5.01058e-09
-1.41301e-09
-5.9848e-09
-9.51609e-09
-1.27327e-08
-1.57411e-08
7.87511e-09
5.54982e-09
-9.82835e-10
-5.64835e-09
-9.25594e-09
-1.25354e-08
-1.55952e-08
8.33243e-09
5.95227e-09
-6.50314e-10
-5.38052e-09
-9.04377e-09
-1.23699e-08
-1.54684e-08
6.74906e-10
-1.62971e-09
-5.39544e-09
-8.54094e-09
-1.13052e-08
-1.39528e-08
-1.65235e-08
1.92432e-09
-4.96609e-10
-4.72295e-09
-8.09864e-09
-1.10047e-08
-1.37584e-08
-1.64044e-08
3.00044e-09
4.5815e-10
-4.08246e-09
-7.64587e-09
-1.06813e-08
-1.3534e-08
-1.62564e-08
3.80918e-09
1.16394e-09
-3.55652e-09
-7.25245e-09
-1.03881e-08
-1.3321e-08
-1.61077e-08
4.46202e-09
1.73221e-09
-3.10993e-09
-6.90723e-09
-1.01239e-08
-1.31236e-08
-1.59654e-08
4.97725e-09
2.18324e-09
-2.74186e-09
-6.61419e-09
-9.8948e-09
-1.29481e-08
-1.58346e-08
5.36696e-09
2.52808e-09
-2.45289e-09
-6.37835e-09
-9.70606e-09
-1.27997e-08
-1.572e-08
-1.32196e-09
-3.58803e-09
-6.59225e-09
-9.3099e-09
-1.18542e-08
-1.43333e-08
-1.67629e-08
-4.30872e-10
-2.87243e-09
-6.12885e-09
-8.98977e-09
-1.16344e-08
-1.41877e-08
-1.66724e-08
3.62603e-10
-2.20329e-09
-5.64372e-09
-8.63646e-09
-1.13788e-08
-1.40082e-08
-1.65524e-08
9.91731e-10
-1.66047e-09
-5.22238e-09
-8.31459e-09
-1.11361e-08
-1.38298e-08
-1.64269e-08
1.51197e-09
-1.20757e-09
-4.85686e-09
-8.02628e-09
-1.09128e-08
-1.36613e-08
-1.63043e-08
1.93094e-09
-8.3859e-10
-4.55018e-09
-7.77826e-09
-1.07166e-08
-1.35095e-08
-1.61901e-08
2.25349e-09
-5.50865e-10
-4.30581e-09
-7.57618e-09
-1.05531e-08
-1.33798e-08
-1.60889e-08
-3.39549e-09
-5.43942e-09
-7.88869e-09
-1.02414e-08
-1.25436e-08
-1.4827e-08
-1.70917e-08
-2.76341e-09
-4.97651e-09
-7.57192e-09
-1.00155e-08
-1.23857e-08
-1.47204e-08
-1.7025e-08
-2.18456e-09
-4.50206e-09
-7.213e-09
-9.74762e-09
-1.21891e-08
-1.45803e-08
-1.69299e-08
-1.70548e-09
-4.0894e-09
-6.88438e-09
-9.49164e-09
-1.19934e-08
-1.44348e-08
-1.68266e-08
-1.29884e-09
-3.73378e-09
-6.59136e-09
-9.25661e-09
-1.18091e-08
-1.42941e-08
-1.6723e-08
-9.65138e-10
-3.4372e-09
-6.34113e-09
-9.05122e-09
-1.16445e-08
-1.41655e-08
-1.66253e-08
-7.04016e-10
-3.20234e-09
-6.13907e-09
-8.8819e-09
-1.1506e-08
-1.40544e-08
-1.65377e-08
-5.39429e-09
-7.16065e-09
-9.20583e-09
-1.12475e-08
-1.33092e-08
-1.53905e-08
-1.74811e-08
-4.94157e-09
-6.85196e-09
-8.98998e-09
-1.10898e-08
-1.3197e-08
-1.53141e-08
-1.7433e-08
-4.52105e-09
-6.51267e-09
-8.72771e-09
-1.089e-08
-1.30481e-08
-1.52062e-08
-1.73591e-08
-4.16024e-09
-6.20132e-09
-8.47491e-09
-1.06898e-08
-1.28931e-08
-1.50897e-08
-1.72752e-08
-3.84632e-09
-5.9245e-09
-8.24333e-09
-1.05013e-08
-1.27434e-08
-1.49741e-08
-1.71891e-08
-3.58394e-09
-5.6893e-09
-8.04216e-09
-1.03337e-08
-1.26075e-08
-1.48668e-08
-1.71067e-08
-3.37596e-09
-5.50065e-09
-7.87787e-09
-1.01943e-08
-1.24918e-08
-1.47729e-08
-1.70319e-08
-7.23353e-09
-8.73753e-09
-1.04746e-08
-1.22545e-08
-1.40949e-08
-1.59833e-08
-1.79027e-08
-6.90352e-09
-8.52548e-09
-1.03262e-08
-1.21443e-08
-1.4016e-08
-1.59292e-08
-1.78686e-08
-6.5956e-09
-8.28008e-09
-1.01342e-08
-1.19961e-08
-1.3904e-08
-1.58473e-08
-1.78119e-08
-6.32412e-09
-8.0449e-09
-9.94072e-09
-1.18408e-08
-1.37825e-08
-1.57548e-08
-1.77443e-08
-6.08277e-09
-7.83016e-09
-9.75892e-09
-1.16907e-08
-1.36618e-08
-1.56608e-08
-1.76736e-08
-5.87776e-09
-7.64496e-09
-9.59854e-09
-1.15554e-08
-1.35507e-08
-1.55721e-08
-1.7605e-08
-5.71367e-09
-7.49476e-09
-9.46638e-09
-1.14419e-08
-1.34554e-08
-1.54938e-08
-1.75421e-08
-1.89886e-08
-2.15189e-08
-2.40216e-08
-2.65255e-08
-2.90569e-08
-3.16413e-08
-1.89078e-08
-2.1492e-08
-2.40419e-08
-2.65937e-08
-2.91809e-08
-3.18382e-08
-1.88026e-08
-2.14438e-08
-2.4043e-08
-2.66426e-08
-2.92819e-08
-3.20008e-08
-1.86929e-08
-2.13838e-08
-2.40262e-08
-2.66661e-08
-2.93466e-08
-3.21107e-08
-1.85839e-08
-2.13172e-08
-2.39957e-08
-2.66695e-08
-2.93843e-08
-3.21839e-08
-1.84799e-08
-2.12475e-08
-2.39553e-08
-2.66561e-08
-2.93984e-08
-3.22261e-08
-1.83849e-08
-2.11787e-08
-2.39084e-08
-2.66288e-08
-2.93905e-08
-3.22386e-08
-1.9029e-08
-2.14883e-08
-2.39227e-08
-2.63515e-08
-2.87911e-08
-3.12559e-08
-1.89652e-08
-2.14689e-08
-2.39428e-08
-2.64114e-08
-2.88965e-08
-3.14186e-08
-1.88765e-08
-2.14284e-08
-2.39449e-08
-2.64546e-08
-2.89834e-08
-3.15561e-08
-1.87804e-08
-2.13759e-08
-2.39299e-08
-2.64749e-08
-2.90403e-08
-3.1652e-08
-1.86833e-08
-2.13163e-08
-2.39024e-08
-2.64776e-08
-2.90738e-08
-3.17175e-08
-1.85895e-08
-2.12533e-08
-2.38658e-08
-2.64654e-08
-2.90862e-08
-3.17551e-08
-1.8503e-08
-2.11905e-08
-2.38232e-08
-2.6441e-08
-2.90793e-08
-3.17662e-08
-1.91504e-08
-2.15062e-08
-2.38428e-08
-2.61703e-08
-2.84969e-08
-3.08294e-08
-1.91023e-08
-2.14933e-08
-2.38615e-08
-2.62211e-08
-2.85837e-08
-3.09597e-08
-1.90298e-08
-2.14605e-08
-2.38639e-08
-2.62573e-08
-2.8656e-08
-3.10733e-08
-1.89484e-08
-2.14158e-08
-2.38506e-08
-2.62741e-08
-2.87044e-08
-3.11552e-08
-1.88641e-08
-2.13637e-08
-2.38264e-08
-2.62759e-08
-2.8733e-08
-3.12118e-08
-1.87815e-08
-2.13079e-08
-2.37938e-08
-2.6265e-08
-2.87436e-08
-3.12443e-08
-1.87045e-08
-2.12517e-08
-2.37558e-08
-2.6243e-08
-2.87369e-08
-3.12531e-08
-1.93377e-08
-2.15677e-08
-2.37853e-08
-2.59938e-08
-2.81953e-08
-3.03904e-08
-1.93028e-08
-2.15595e-08
-2.38021e-08
-2.60358e-08
-2.82649e-08
-3.04931e-08
-1.92451e-08
-2.15339e-08
-2.38043e-08
-2.6065e-08
-2.83236e-08
-3.05852e-08
-1.91774e-08
-2.14962e-08
-2.3793e-08
-2.60786e-08
-2.83634e-08
-3.06535e-08
-1.91055e-08
-2.14514e-08
-2.37718e-08
-2.60797e-08
-2.83873e-08
-3.0701e-08
-1.9034e-08
-2.14028e-08
-2.37433e-08
-2.60698e-08
-2.83957e-08
-3.0728e-08
-1.89667e-08
-2.13531e-08
-2.37092e-08
-2.60495e-08
-2.83885e-08
-3.07342e-08
-1.95741e-08
-2.16649e-08
-2.37509e-08
-2.583e-08
-2.78993e-08
-2.99553e-08
-1.95493e-08
-2.16609e-08
-2.37662e-08
-2.58641e-08
-2.79543e-08
-3.00354e-08
-1.95043e-08
-2.16409e-08
-2.37684e-08
-2.58879e-08
-2.80013e-08
-3.01088e-08
-1.94484e-08
-2.16095e-08
-2.3759e-08
-2.58991e-08
-2.80337e-08
-3.01642e-08
-1.93879e-08
-2.15714e-08
-2.37407e-08
-2.58997e-08
-2.80534e-08
-3.02034e-08
-1.93271e-08
-2.15295e-08
-2.37157e-08
-2.58902e-08
-2.8059e-08
-3.02247e-08
-1.92692e-08
-2.14864e-08
-2.36856e-08
-2.58717e-08
-2.80513e-08
-3.02278e-08
-1.98409e-08
-2.17888e-08
-2.37391e-08
-2.56852e-08
-2.762e-08
-2.95374e-08
-1.98242e-08
-2.17879e-08
-2.37529e-08
-2.57132e-08
-2.76639e-08
-2.95998e-08
-1.9789e-08
-2.17722e-08
-2.37554e-08
-2.57331e-08
-2.77019e-08
-2.9658e-08
-1.97434e-08
-2.17463e-08
-2.37473e-08
-2.57422e-08
-2.77286e-08
-2.97031e-08
-1.96931e-08
-2.17141e-08
-2.37314e-08
-2.5742e-08
-2.77439e-08
-2.97343e-08
-1.9642e-08
-2.16783e-08
-2.37096e-08
-2.5733e-08
-2.77473e-08
-2.97503e-08
-1.9593e-08
-2.16415e-08
-2.36833e-08
-2.57161e-08
-2.77388e-08
-2.97504e-08
-3.4301e-08
-3.70539e-08
-3.99324e-08
-4.30576e-08
-4.67608e-08
-5.09441e-08
-5.22636e-08
-3.4599e-08
-3.74914e-08
-4.05567e-08
-4.39248e-08
-4.79607e-08
-5.25562e-08
-5.34694e-08
-3.48376e-08
-3.78221e-08
-4.09964e-08
-4.45015e-08
-4.87283e-08
-5.35336e-08
-5.42224e-08
-3.49975e-08
-3.80359e-08
-4.12663e-08
-4.48372e-08
-4.91547e-08
-5.40432e-08
-5.46639e-08
-3.51088e-08
-3.81882e-08
-4.14629e-08
-4.50859e-08
-4.94669e-08
-5.44085e-08
-5.50236e-08
-3.51803e-08
-3.82916e-08
-4.16019e-08
-4.52662e-08
-4.96939e-08
-5.46756e-08
-5.53092e-08
-3.52138e-08
-3.83472e-08
-4.16816e-08
-4.53738e-08
-4.98318e-08
-5.48418e-08
-5.54983e-08
-3.37571e-08
-3.63005e-08
-3.88987e-08
-4.1613e-08
-4.45837e-08
-4.76858e-08
-4.92295e-08
-3.39961e-08
-3.66407e-08
-3.93705e-08
-4.22501e-08
-4.54241e-08
-4.87401e-08
-5.01398e-08
-3.41944e-08
-3.69114e-08
-3.97245e-08
-4.27036e-08
-4.60034e-08
-4.9436e-08
-5.07565e-08
-3.43327e-08
-3.70955e-08
-3.9957e-08
-4.29906e-08
-4.63566e-08
-4.9847e-08
-5.11559e-08
-3.44314e-08
-3.72297e-08
-4.01296e-08
-4.32066e-08
-4.6622e-08
-5.0155e-08
-5.14779e-08
-3.44952e-08
-3.73214e-08
-4.02515e-08
-4.33624e-08
-4.68148e-08
-5.03811e-08
-5.17269e-08
-3.45248e-08
-3.73704e-08
-4.03213e-08
-4.34553e-08
-4.69324e-08
-5.05229e-08
-5.18911e-08
-3.31722e-08
-3.5525e-08
-3.78895e-08
-4.0284e-08
-4.27409e-08
-4.51688e-08
-4.68265e-08
-3.33582e-08
-3.57836e-08
-3.82394e-08
-4.07456e-08
-4.33308e-08
-4.58827e-08
-4.75469e-08
-3.35202e-08
-3.60023e-08
-3.85242e-08
-4.11075e-08
-4.37808e-08
-4.64101e-08
-4.80795e-08
-3.3638e-08
-3.61593e-08
-3.87243e-08
-4.13554e-08
-4.40818e-08
-4.67582e-08
-4.84446e-08
-3.37234e-08
-3.62755e-08
-3.8874e-08
-4.1542e-08
-4.43081e-08
-4.70206e-08
-4.87302e-08
-3.37786e-08
-3.63546e-08
-3.89789e-08
-4.16751e-08
-4.4471e-08
-4.72117e-08
-4.89451e-08
-3.38036e-08
-3.63965e-08
-3.90384e-08
-4.17538e-08
-4.45701e-08
-4.73315e-08
-4.90854e-08
-3.25785e-08
-3.47549e-08
-3.69121e-08
-3.90431e-08
-4.11367e-08
-4.31491e-08
-4.47532e-08
-3.27223e-08
-3.495e-08
-3.71702e-08
-3.93766e-08
-4.15521e-08
-4.36479e-08
-4.53238e-08
-3.28526e-08
-3.51244e-08
-3.73961e-08
-3.96615e-08
-4.1901e-08
-4.40556e-08
-4.57702e-08
-3.29511e-08
-3.52556e-08
-3.75635e-08
-3.98691e-08
-4.21516e-08
-4.43462e-08
-4.6088e-08
-3.30233e-08
-3.53538e-08
-3.76899e-08
-4.00264e-08
-4.23413e-08
-4.45668e-08
-4.63339e-08
-3.30696e-08
-3.54206e-08
-3.77784e-08
-4.01382e-08
-4.24773e-08
-4.47269e-08
-4.65161e-08
-3.30897e-08
-3.54548e-08
-3.78277e-08
-4.02036e-08
-4.25598e-08
-4.4827e-08
-4.66335e-08
-3.19925e-08
-3.40004e-08
-3.59644e-08
-3.78654e-08
-3.9682e-08
-4.14086e-08
-4.28739e-08
-3.21029e-08
-3.4147e-08
-3.61539e-08
-3.81053e-08
-3.99748e-08
-4.1763e-08
-4.33177e-08
-3.22062e-08
-3.42842e-08
-3.63295e-08
-3.83243e-08
-4.02406e-08
-4.20753e-08
-4.3677e-08
-3.22864e-08
-3.4391e-08
-3.64656e-08
-3.84925e-08
-4.0443e-08
-4.23115e-08
-4.39416e-08
-3.23461e-08
-3.44722e-08
-3.657e-08
-3.86221e-08
-4.05988e-08
-4.24935e-08
-4.41469e-08
-3.23839e-08
-3.45272e-08
-3.6643e-08
-3.87141e-08
-4.07109e-08
-4.26259e-08
-4.4298e-08
-3.23986e-08
-3.45542e-08
-3.66828e-08
-3.87675e-08
-4.07784e-08
-4.27081e-08
-4.43945e-08
-3.14278e-08
-3.32759e-08
-3.50616e-08
-3.67621e-08
-3.83579e-08
-3.9865e-08
-4.11672e-08
-3.15123e-08
-3.3386e-08
-3.52011e-08
-3.69349e-08
-3.85658e-08
-4.01205e-08
-4.15103e-08
-3.15931e-08
-3.34921e-08
-3.53355e-08
-3.71011e-08
-3.87666e-08
-4.03587e-08
-4.17932e-08
-3.16577e-08
-3.35776e-08
-3.5444e-08
-3.72349e-08
-3.89273e-08
-4.05473e-08
-4.20072e-08
-3.17058e-08
-3.36435e-08
-3.55287e-08
-3.73398e-08
-3.90534e-08
-4.06952e-08
-4.21748e-08
-3.17354e-08
-3.36876e-08
-3.55879e-08
-3.74147e-08
-3.91446e-08
-4.08029e-08
-4.22976e-08
-3.17452e-08
-3.37081e-08
-3.56195e-08
-3.74576e-08
-3.9199e-08
-4.08693e-08
-4.23754e-08
8.65354e-09
6.23825e-09
-4.08071e-10
-5.18037e-09
-8.88111e-09
-1.22392e-08
-1.53639e-08
8.85572e-09
6.42164e-09
-2.49012e-10
-5.0456e-09
-8.7683e-09
-1.21448e-08
-1.52843e-08
8.95039e-09
6.51123e-09
-1.68215e-10
-4.97431e-09
-8.70535e-09
-1.20883e-08
-1.52319e-08
8.94332e-09
6.51149e-09
-1.63066e-10
-4.96549e-09
-8.6926e-09
-1.20706e-08
-1.52082e-08
8.8349e-09
6.42266e-09
-2.33486e-10
-5.01927e-09
-8.73045e-09
-1.20927e-08
-1.5214e-08
8.62064e-09
6.24029e-09
-3.82459e-10
-5.13725e-09
-8.81974e-09
-1.21549e-08
-1.52499e-08
5.64413e-09
2.7766e-09
-2.24013e-09
-6.20073e-09
-9.56046e-09
-1.26817e-08
-1.56249e-08
5.81946e-09
2.93672e-09
-2.09998e-09
-6.08088e-09
-9.45923e-09
-1.25963e-08
-1.55524e-08
5.90031e-09
3.01398e-09
-2.0296e-09
-6.01816e-09
-9.40334e-09
-1.25457e-08
-1.55051e-08
5.89015e-09
3.01109e-09
-2.02749e-09
-6.01231e-09
-9.39359e-09
-1.25312e-08
-1.54847e-08
5.7883e-09
2.92739e-09
-2.09416e-09
-6.06374e-09
-9.43041e-09
-1.25535e-08
-1.5492e-08
5.59017e-09
2.75862e-09
-2.23264e-09
-6.17426e-09
-9.5149e-09
-1.26131e-08
-1.55273e-08
2.48574e-09
-3.41004e-10
-4.12414e-09
-7.42279e-09
-1.0426e-08
-1.32758e-08
-1.60043e-08
2.63329e-09
-2.05228e-10
-4.00418e-09
-7.31912e-09
-1.03375e-08
-1.32003e-08
-1.59396e-08
2.70024e-09
-1.40551e-10
-3.94468e-09
-7.26553e-09
-1.02891e-08
-1.31558e-08
-1.58975e-08
2.6882e-09
-1.45774e-10
-3.94505e-09
-7.26219e-09
-1.0282e-08
-1.3144e-08
-1.58799e-08
2.59574e-09
-2.22198e-10
-4.00625e-09
-7.30972e-09
-1.03163e-08
-1.31652e-08
-1.58875e-08
2.41865e-09
-3.73557e-10
-4.13112e-09
-7.41008e-09
-1.03935e-08
-1.32201e-08
-1.59205e-08
-5.14126e-10
-3.02939e-09
-5.98773e-09
-8.75257e-09
-1.13975e-08
-1.39645e-08
-1.64638e-08
-3.9329e-10
-2.91731e-09
-5.8878e-09
-8.6652e-09
-1.13218e-08
-1.3899e-08
-1.64069e-08
-3.39718e-10
-2.86502e-09
-5.83915e-09
-8.62079e-09
-1.1281e-08
-1.38607e-08
-1.63698e-08
-3.53143e-10
-2.87241e-09
-5.8419e-09
-8.61977e-09
-1.1276e-08
-1.38508e-08
-1.63541e-08
-4.35186e-10
-2.94087e-09
-5.89712e-09
-8.66277e-09
-1.13071e-08
-1.38698e-08
-1.63607e-08
-5.89249e-10
-3.07331e-09
-6.00706e-09
-8.75156e-09
-1.13756e-08
-1.39184e-08
-1.63898e-08
-3.22361e-09
-5.3607e-09
-7.75416e-09
-1.00872e-08
-1.24007e-08
-1.46963e-08
-1.69683e-08
-3.12675e-09
-5.27015e-09
-7.67254e-09
-1.00149e-08
-1.23372e-08
-1.46404e-08
-1.69189e-08
-3.0852e-09
-5.22913e-09
-7.63372e-09
-9.97873e-09
-1.23031e-08
-1.46075e-08
-1.68863e-08
-3.09937e-09
-5.23806e-09
-7.63818e-09
-9.97918e-09
-1.22992e-08
-1.45988e-08
-1.68721e-08
-3.17066e-09
-5.2981e-09
-7.68675e-09
-1.00168e-08
-1.23261e-08
-1.46147e-08
-1.68768e-08
-3.30157e-09
-5.41133e-09
-7.7812e-09
-1.00932e-08
-1.23847e-08
-1.46558e-08
-1.69009e-08
-5.59278e-09
-7.38278e-09
-9.36636e-09
-1.13543e-08
-1.33799e-08
-1.54295e-08
-1.7488e-08
-5.51615e-09
-7.31052e-09
-9.30042e-09
-1.12951e-08
-1.3327e-08
-1.53821e-08
-1.74456e-08
-5.48437e-09
-7.27869e-09
-9.26959e-09
-1.12656e-08
-1.32984e-08
-1.53539e-08
-1.74174e-08
-5.49802e-09
-7.28773e-09
-9.27422e-09
-1.1266e-08
-1.32946e-08
-1.53457e-08
-1.74044e-08
-5.55822e-09
-7.33857e-09
-9.31503e-09
-1.12972e-08
-1.33163e-08
-1.53578e-08
-1.74069e-08
-5.66687e-09
-7.43298e-09
-9.39382e-09