/*--------------------------------*- C++ -*----------------------------------*\
  =========                 |
  \\      /  F ield         | OpenFOAM: The Open Source CFD Toolbox
   \\    /   O peration     | Website:  https://openfoam.org
    \\  /    A nd           | Version:  7
     \\/     M anipulation  |
\*---------------------------------------------------------------------------*/
FoamFile
{
    version     2.0;
    format      ascii;
    class       volVectorField;
    location    "0.25";
    object      U;
}
// * * * * * * * * * * * * * * * * * * * * * * * * * * * * * * * * * * * * * //

dimensions      [0 1 -1 0 0 0 0];

internalField   nonuniform List<vector> 
7784
(
(0.241732 -2.83458e-10 1.24894e-10)
(0.241732 -3.12975e-10 1.52702e-10)
(0.241732 -2.15482e-10 1.67235e-10)
(0.241732 -1.22247e-10 1.53998e-10)
(0.241732 -6.77926e-11 1.20294e-10)
(0.241732 -3.70448e-11 8.7799e-11)
(0.241732 -1.95142e-11 6.11984e-11)
(0.241732 -4.36379e-10 1.51846e-10)
(0.241732 -4.76524e-10 1.73436e-10)
(0.241732 -3.30142e-10 2.01145e-10)
(0.241732 -1.95518e-10 1.85543e-10)
(0.241732 -1.14027e-10 1.45826e-10)
(0.241732 -6.55768e-11 1.06125e-10)
(0.241732 -3.59929e-11 7.3991e-11)
(0.241732 -4.05811e-10 1.6068e-10)
(0.241732 -4.29108e-10 1.799e-10)
(0.241732 -3.03324e-10 2.09688e-10)
(0.241732 -1.92152e-10 1.93339e-10)
(0.241732 -1.19188e-10 1.50203e-10)
(0.241732 -7.23909e-11 1.08453e-10)
(0.241732 -4.11986e-11 7.52126e-11)
(0.241732 -2.99924e-10 1.71924e-10)
(0.241732 -3.09405e-10 1.92522e-10)
(0.241732 -2.29952e-10 2.21463e-10)
(0.241732 -1.55828e-10 2.00959e-10)
(0.241732 -1.02752e-10 1.54492e-10)
(0.241732 -6.49336e-11 1.10864e-10)
(0.241732 -3.75518e-11 7.65661e-11)
(0.241732 -2.0882e-10 1.81814e-10)
(0.241732 -2.11639e-10 2.03112e-10)
(0.241732 -1.64295e-10 2.29891e-10)
(0.241732 -1.17763e-10 2.06621e-10)
(0.241732 -8.06448e-11 1.58088e-10)
(0.241732 -5.18612e-11 1.13061e-10)
(0.241732 -2.96137e-11 7.78326e-11)
(0.241732 -1.39098e-10 1.88024e-10)
(0.241732 -1.39306e-10 2.0977e-10)
(0.241732 -1.11416e-10 2.35273e-10)
(0.241732 -8.22461e-11 2.10467e-10)
(0.241732 -5.70018e-11 1.60654e-10)
(0.241732 -3.62235e-11 1.14709e-10)
(0.241732 -1.93499e-11 7.884e-11)
(0.241732 -8.51899e-11 1.91811e-10)
(0.241732 -8.37607e-11 2.13808e-10)
(0.241732 -6.73581e-11 2.38592e-10)
(0.241732 -4.96422e-11 2.12946e-10)
(0.241732 -3.34523e-11 1.62394e-10)
(0.241732 -1.95287e-11 1.15848e-10)
(0.241732 -7.84058e-12 7.95241e-11)
(0.0211851 -4.24649e-10 5.77628e-10)
(0.0211851 -4.56155e-10 6.92277e-10)
(0.0211851 -3.03617e-10 6.43734e-10)
(0.0211851 -1.71376e-10 5.1811e-10)
(0.0211851 -9.31065e-11 3.82255e-10)
(0.0211851 -5.05346e-11 2.71927e-10)
(0.0211851 -2.64526e-11 1.87729e-10)
(0.0211851 -6.32258e-10 7.53008e-10)
(0.0211851 -6.77328e-10 8.81817e-10)
(0.0211851 -4.57646e-10 8.09917e-10)
(0.0211851 -2.6851e-10 6.42418e-10)
(0.0211851 -1.54085e-10 4.70362e-10)
(0.0211851 -8.77997e-11 3.31923e-10)
(0.0211851 -4.7632e-11 2.28388e-10)
(0.0211851 -5.6525e-10 8.28041e-10)
(0.0211851 -5.89268e-10 9.54656e-10)
(0.0211851 -4.11576e-10 8.66651e-10)
(0.0211851 -2.56555e-10 6.78727e-10)
(0.0211851 -1.57729e-10 4.89813e-10)
(0.0211851 -9.47696e-11 3.42547e-10)
(0.0211851 -5.29313e-11 2.3432e-10)
(0.0211851 -4.12725e-10 8.75925e-10)
(0.0211851 -4.17059e-10 1.00878e-09)
(0.0211851 -3.05501e-10 9.07404e-10)
(0.0211851 -2.06297e-10 7.02526e-10)
(0.0211851 -1.35297e-10 5.03177e-10)
(0.0211851 -8.45031e-11 3.50066e-10)
(0.0211851 -4.77173e-11 2.38388e-10)
(0.0211851 -2.82376e-10 9.10127e-10)
(0.0211851 -2.8081e-10 1.04494e-09)
(0.0211851 -2.16591e-10 9.34006e-10)
(0.0211851 -1.55016e-10 7.19888e-10)
(0.0211851 -1.05354e-10 5.1406e-10)
(0.0211851 -6.66661e-11 3.56673e-10)
(0.0211851 -3.67546e-11 2.42266e-10)
(0.0211851 -1.85528e-10 9.30531e-10)
(0.0211851 -1.82691e-10 1.06633e-09)
(0.0211851 -1.45221e-10 9.50602e-10)
(0.0211851 -1.06707e-10 7.31463e-10)
(0.0211851 -7.30818e-11 5.21773e-10)
(0.0211851 -4.51983e-11 3.61613e-10)
(0.0211851 -2.24565e-11 2.45227e-10)
(0.0211851 -1.11036e-10 9.42653e-10)
(0.0211851 -1.07273e-10 1.07892e-09)
(0.0211851 -8.54981e-11 9.60715e-10)
(0.0211851 -6.21847e-11 7.38901e-10)
(0.0211851 -4.07078e-11 5.26917e-10)
(0.0211851 -2.21319e-11 3.64973e-10)
(0.0211851 -6.42934e-12 2.47271e-10)
(0.00185664 -3.7476e-10 1.28581e-09)
(0.00185663 -3.92187e-10 1.51559e-09)
(0.00185663 -2.55291e-10 1.29585e-09)
(0.00185663 -1.42967e-10 9.77199e-10)
(0.00185663 -7.88832e-11 7.06034e-10)
(0.00185663 -4.38386e-11 4.9976e-10)
(0.00185663 -2.31705e-11 3.46113e-10)
(0.00185663 -5.5916e-10 1.69673e-09)
(0.00185663 -5.83458e-10 1.94873e-09)
(0.00185663 -3.87615e-10 1.62353e-09)
(0.00185663 -2.27653e-10 1.20618e-09)
(0.00185663 -1.33452e-10 8.57982e-10)
(0.00185663 -7.75259e-11 6.01645e-10)
(0.00185663 -4.22995e-11 4.1462e-10)
(0.00185663 -4.97288e-10 1.85377e-09)
(0.00185663 -5.042e-10 2.11017e-09)
(0.00185663 -3.49192e-10 1.73715e-09)
(0.00185663 -2.21249e-10 1.26863e-09)
(0.00185663 -1.39436e-10 8.91172e-10)
(0.00185663 -8.48687e-11 6.19846e-10)
(0.00185663 -4.75186e-11 4.24662e-10)
(0.00185663 -3.64088e-10 1.94668e-09)
(0.00185663 -3.59413e-10 2.21096e-09)
(0.00185663 -2.64901e-10 1.80447e-09)
(0.00185663 -1.82747e-10 1.30745e-09)
(0.00185663 -1.21572e-10 9.13567e-10)
(0.00185663 -7.63921e-11 6.32623e-10)
(0.00185663 -4.29348e-11 4.31637e-10)
(0.00185663 -2.52989e-10 2.0062e-09)
(0.00185663 -2.47626e-10 2.27201e-09)
(0.00185663 -1.92785e-10 1.84811e-09)
(0.00185663 -1.39524e-10 1.33587e-09)
(0.00185663 -9.54782e-11 9.31519e-10)
(0.00185663 -6.04248e-11 6.43661e-10)
(0.00185663 -3.27498e-11 4.38158e-10)
(0.00185663 -1.68632e-10 2.04174e-09)
(0.00185663 -1.63801e-10 2.30798e-09)
(0.00185663 -1.30718e-10 1.87543e-09)
(0.00185663 -9.65285e-11 1.35498e-09)
(0.00185663 -6.60912e-11 9.44328e-10)
(0.00185663 -4.04531e-11 6.51847e-10)
(0.00185663 -1.92502e-11 4.43067e-10)
(0.00185663 -1.00896e-10 2.06276e-09)
(0.00185663 -9.61334e-11 2.32916e-09)
(0.00185663 -7.6502e-11 1.89225e-09)
(0.00185663 -5.545e-11 1.36726e-09)
(0.00185663 -3.57976e-11 9.52831e-10)
(0.00185663 -1.85699e-11 6.57446e-10)
(0.00185663 -3.83686e-12 4.46458e-10)
(0.241732 -8.68848e-12 4.01306e-11)
(0.241732 -1.16095e-12 2.28725e-11)
(0.241732 5.19768e-12 7.92129e-12)
(0.241732 1.1843e-11 -5.95762e-12)
(0.241732 2.03466e-11 -1.97343e-11)
(0.241732 3.26624e-11 -3.39969e-11)
(0.241732 -1.66459e-11 4.86215e-11)
(0.241732 -2.58759e-12 2.79787e-11)
(0.241732 9.52022e-12 1.02426e-11)
(0.241732 2.21302e-11 -6.17062e-12)
(0.241732 3.78098e-11 -2.22672e-11)
(0.241732 5.99453e-11 -3.85815e-11)
(0.241732 -1.92803e-11 4.92697e-11)
(0.241732 -2.38251e-12 2.82798e-11)
(0.241732 1.25106e-11 1.02595e-11)
(0.241732 2.807e-11 -6.35701e-12)
(0.241732 4.69055e-11 -2.26692e-11)
(0.241732 7.23214e-11 -3.92602e-11)
(0.241732 -1.69656e-11 4.99368e-11)
(0.241732 -2.8769e-13 2.85085e-11)
(0.241732 1.48674e-11 1.01837e-11)
(0.241732 3.06497e-11 -6.76419e-12)
(0.241732 4.93158e-11 -2.3491e-11)
(0.241732 7.33798e-11 -4.06002e-11)
(0.241732 -1.19847e-11 5.06191e-11)
(0.241732 2.89022e-12 2.87681e-11)
(0.241732 1.67392e-11 1.00617e-11)
(0.241732 3.11487e-11 -7.23703e-12)
(0.241732 4.77844e-11 -2.43764e-11)
(0.241732 6.85076e-11 -4.20673e-11)
(0.241732 -5.40026e-12 5.11448e-11)
(0.241732 6.7505e-12 2.89313e-11)
(0.241732 1.82437e-11 9.93344e-12)
(0.241732 3.02527e-11 -7.68463e-12)
(0.241732 4.39124e-11 -2.52242e-11)
(0.241732 6.04204e-11 -4.342e-11)
(0.241732 2.1046e-12 5.15006e-11)
(0.241732 1.09824e-11 2.90279e-11)
(0.241732 1.95348e-11 9.7948e-12)
(0.241732 2.85151e-11 -8.06165e-12)
(0.241732 3.86817e-11 -2.58856e-11)
(0.241732 5.07716e-11 -4.44748e-11)
(0.0211851 -1.16969e-11 1.22767e-10)
(0.0211851 -1.33716e-12 7.01182e-11)
(0.0211851 7.44615e-12 2.46071e-11)
(0.0211851 1.66687e-11 -1.78657e-11)
(0.0211851 2.85189e-11 -6.03399e-11)
(0.0211851 4.59739e-11 -1.05293e-10)
(0.0211851 -2.15139e-11 1.49382e-10)
(0.0211851 -2.45536e-12 8.585e-11)
(0.0211851 1.39466e-11 3.12155e-11)
(0.0211851 3.12173e-11 -1.94251e-11)
(0.0211851 5.29412e-11 -6.9888e-11)
(0.0211851 8.38493e-11 -1.22935e-10)
(0.0211851 -2.36435e-11 1.52568e-10)
(0.0211851 -1.06159e-12 8.73176e-11)
(0.0211851 1.90446e-11 3.14152e-11)
(0.0211851 4.0195e-11 -2.04649e-11)
(0.0211851 6.61086e-11 -7.23181e-11)
(0.0211851 1.01492e-10 -1.2736e-10)
(0.0211851 -2.00612e-11 1.54595e-10)
(0.0211851 2.40777e-12 8.8005e-11)
(0.0211851 2.30108e-11 3.10481e-11)
(0.0211851 4.46628e-11 -2.18825e-11)
(0.0211851 7.0482e-11 -7.51308e-11)
(0.0211851 1.04206e-10 -1.3217e-10)
(0.0211851 -1.29293e-11 1.5664e-10)
(0.0211851 7.28123e-12 8.8724e-11)
(0.0211851 2.61891e-11 3.06572e-11)
(0.0211851 4.61142e-11 -2.33897e-11)
(0.0211851 6.93466e-11 -7.80214e-11)
(0.0211851 9.84687e-11 -1.37041e-10)
(0.0211851 -3.59474e-12 1.58196e-10)
(0.0211851 1.29616e-11 8.9216e-11)
(0.0211851 2.88e-11 3.02341e-11)
(0.0211851 4.54851e-11 -2.47828e-11)
(0.0211851 6.46554e-11 -8.05868e-11)
(0.0211851 8.79993e-11 -1.41168e-10)
(0.0211851 7.02408e-12 1.59248e-10)
(0.0211851 1.91291e-11 8.94633e-11)
(0.0211851 3.09299e-11 2.97576e-11)
(0.0211851 4.34835e-11 -2.6005e-11)
(0.0211851 5.78529e-11 -8.27108e-11)
(0.0211851 7.50809e-11 -1.44447e-10)
(0.00185663 -9.98247e-12 2.27673e-10)
(0.00185663 -5.02781e-13 1.31202e-10)
(0.00185663 7.70833e-12 4.72807e-11)
(0.00185663 1.65036e-11 -3.13791e-11)
(0.00185663 2.77983e-11 -1.10675e-10)
(0.00185663 4.44051e-11 -1.96027e-10)
(0.00185663 -1.87096e-11 2.7224e-10)
(0.00185663 -1.08107e-12 1.57296e-10)
(0.00185663 1.44425e-11 5.77092e-11)
(0.00185663 3.09138e-11 -3.53652e-11)
(0.00185663 5.16086e-11 -1.29212e-10)
(0.00185663 8.099e-11 -2.30694e-10)
(0.00185663 -2.06782e-11 2.7754e-10)
(0.00185663 4.84901e-13 1.59511e-10)
(0.00185663 1.9575e-11 5.76418e-11)
(0.00185663 3.97626e-11 -3.77546e-11)
(0.00185663 6.44682e-11 -1.34605e-10)
(0.00185663 9.7964e-11 -2.40548e-10)
(0.00185663 -1.72377e-11 2.81033e-10)
(0.00185663 3.98139e-12 1.60658e-10)
(0.00185663 2.36052e-11 5.68062e-11)
(0.00185663 4.43598e-11 -4.0561e-11)
(0.00185663 6.90194e-11 -1.40022e-10)
(0.00185663 1.00932e-10 -2.50062e-10)
(0.00185663 -1.04163e-11 2.84407e-10)
(0.00185663 8.77701e-12 1.61757e-10)
(0.00185663 2.69346e-11 5.60279e-11)
(0.00185663 4.6078e-11 -4.33654e-11)
(0.00185663 6.83451e-11 -1.45367e-10)
(0.00185663 9.60745e-11 -2.58972e-10)
(0.00185663 -1.40741e-12 2.86988e-10)
(0.00185663 1.44065e-11 1.62501e-10)
(0.00185663 2.96314e-11 5.51356e-11)
(0.00185663 4.57254e-11 -4.59441e-11)
(0.00185663 6.41672e-11 -1.50031e-10)
(0.00185663 8.65359e-11 -2.66436e-10)
(0.00185663 8.91203e-12 2.88671e-10)
(0.00185663 2.04911e-11 1.62804e-10)
(0.00185663 3.18564e-11 5.4186e-11)
(0.00185663 4.40008e-11 -4.8199e-11)
(0.00185663 5.78624e-11 -1.53846e-10)
(0.00185663 7.43906e-11 -2.72301e-10)
(0.241732 5.20598e-11 -4.84883e-11)
(0.241732 8.38536e-11 -6.10788e-11)
(0.241732 1.35791e-10 -6.54021e-11)
(0.241732 2.13059e-10 -5.27732e-11)
(0.241732 3.14143e-10 -8.91248e-13)
(0.241732 4.12524e-10 1.45533e-10)
(0.241732 3.66219e-10 3.07947e-10)
(0.241732 9.34277e-11 -5.45156e-11)
(0.241732 1.46014e-10 -6.67355e-11)
(0.241732 2.27977e-10 -6.72159e-11)
(0.241732 3.45871e-10 -4.34332e-11)
(0.241732 4.9492e-10 2.67163e-11)
(0.241732 6.29198e-10 2.04603e-10)
(0.241732 5.51829e-10 3.98418e-10)
(0.241732 1.08884e-10 -5.53621e-11)
(0.241732 1.62983e-10 -6.74629e-11)
(0.241732 2.42215e-10 -6.69919e-11)
(0.241732 3.50311e-10 -4.23572e-11)
(0.241732 4.76389e-10 2.67149e-11)
(0.241732 5.71419e-10 2.01101e-10)
(0.241732 4.95725e-10 3.95143e-10)
(0.241732 1.06139e-10 -5.7467e-11)
(0.241732 1.51547e-10 -7.06039e-11)
(0.241732 2.13539e-10 -7.16157e-11)
(0.241732 2.91984e-10 -4.8987e-11)
(0.241732 3.76766e-10 1.68962e-11)
(0.241732 4.35339e-10 1.85344e-10)
(0.241732 3.76461e-10 3.75424e-10)
(0.241732 9.52672e-11 -5.97553e-11)
(0.241732 1.30163e-10 -7.40679e-11)
(0.241732 1.74686e-10 -7.6641e-11)
(0.241732 2.27406e-10 -5.61624e-11)
(0.241732 2.81052e-10 7.02007e-12)
(0.241732 3.1638e-10 1.72852e-10)
(0.241732 2.76913e-10 3.62524e-10)
(0.241732 8.09709e-11 -6.17674e-11)
(0.241732 1.06478e-10 -7.70144e-11)
(0.241732 1.37269e-10 -8.08267e-11)
(0.241732 1.7176e-10 -6.18092e-11)
(0.241732 2.05527e-10 -2.08012e-13)
(0.241732 2.28007e-10 1.64207e-10)
(0.241732 2.01244e-10 3.54333e-10)
(0.241732 6.54601e-11 -6.33494e-11)
(0.241732 8.3097e-11 -7.92273e-11)
(0.241732 1.03543e-10 -8.38338e-11)
(0.241732 1.25577e-10 -6.57812e-11)
(0.241732 1.46692e-10 -5.11885e-12)
(0.241732 1.60919e-10 1.586e-10)
(0.241732 1.42037e-10 3.4927e-10)
(0.0211851 7.38929e-11 -1.54085e-10)
(0.0211851 1.20644e-10 -2.05426e-10)
(0.0211851 1.97699e-10 -2.54203e-10)
(0.0211851 3.13695e-10 -2.9377e-10)
(0.0211851 4.60525e-10 -2.99767e-10)
(0.0211851 5.80627e-10 -1.97219e-10)
(0.0211851 5.01805e-10 5.85745e-11)
(0.0211851 1.3145e-10 -1.79881e-10)
(0.0211851 2.07496e-10 -2.39058e-10)
(0.0211851 3.27409e-10 -2.93655e-10)
(0.0211851 5.0049e-10 -3.34823e-10)
(0.0211851 7.11615e-10 -3.42539e-10)
(0.0211851 8.80178e-10 -2.16781e-10)
(0.0211851 7.5372e-10 6.43257e-11)
(0.0211851 1.53103e-10 -1.87273e-10)
(0.0211851 2.30561e-10 -2.50969e-10)
(0.0211851 3.45325e-10 -3.12943e-10)
(0.0211851 5.01396e-10 -3.66114e-10)
(0.0211851 6.78603e-10 -3.9186e-10)
(0.0211851 8.08237e-10 -2.88397e-10)
(0.0211851 6.9467e-10 6.55467e-12)
(0.0211851 1.50458e-10 -1.95337e-10)
(0.0211851 2.15161e-10 -2.64335e-10)
(0.0211851 3.03879e-10 -3.34728e-10)
(0.0211851 4.15941e-10 -4.00607e-10)
(0.0211851 5.34735e-10 -4.43196e-10)
(0.0211851 6.14953e-10 -3.56293e-10)
(0.0211851 5.37386e-10 -5.9534e-11)
(0.0211851 1.36406e-10 -2.03086e-10)
(0.0211851 1.86091e-10 -2.76479e-10)
(0.0211851 2.49593e-10 -3.53358e-10)
(0.0211851 3.24285e-10 -4.28066e-10)
(0.0211851 3.98928e-10 -4.80853e-10)
(0.0211851 4.49744e-10 -4.01963e-10)
(0.0211851 4.0054e-10 -1.01485e-10)
(0.0211851 1.17196e-10 -2.09433e-10)
(0.0211851 1.53543e-10 -2.85938e-10)
(0.0211851 1.97348e-10 -3.67071e-10)
(0.0211851 2.46193e-10 -4.47119e-10)
(0.0211851 2.93338e-10 -5.05581e-10)
(0.0211851 3.26256e-10 -4.3078e-10)
(0.0211851 2.93906e-10 -1.27428e-10)
(0.0211851 9.60431e-11 -2.14253e-10)
(0.0211851 1.21257e-10 -2.92821e-10)
(0.0211851 1.50412e-10 -3.76604e-10)
(0.0211851 1.81621e-10 -4.59764e-10)
(0.0211851 2.11215e-10 -5.21333e-10)
(0.0211851 2.32565e-10 -4.4867e-10)
(0.0211851 2.09918e-10 -1.43412e-10)
(0.00185663 7.09816e-11 -2.92627e-10)
(0.00185663 1.15157e-10 -4.05634e-10)
(0.00185663 1.87614e-10 -5.40244e-10)
(0.00185663 2.94202e-10 -7.01706e-10)
(0.00185663 4.22123e-10 -8.86138e-10)
(0.00185663 5.19006e-10 -9.89421e-10)
(0.00185664 4.40035e-10 -7.74976e-10)
(0.00185663 1.25951e-10 -3.4665e-10)
(0.00185663 1.97168e-10 -4.84649e-10)
(0.00185663 3.08214e-10 -6.53195e-10)
(0.00185663 4.6543e-10 -8.61258e-10)
(0.00185663 6.48934e-10 -1.10602e-09)
(0.00185663 7.82758e-10 -1.25945e-09)
(0.00185663 6.60118e-10 -9.85664e-10)
(0.00185663 1.46255e-10 -3.64081e-10)
(0.00185663 2.17929e-10 -5.15287e-10)
(0.00185663 3.22353e-10 -7.06542e-10)
(0.00185663 4.61706e-10 -9.49891e-10)
(0.00185663 6.1525e-10 -1.24091e-09)
(0.00185663 7.18988e-10 -1.43705e-09)
(0.00185663 6.16663e-10 -1.1421e-09)
(0.00185663 1.44263e-10 -3.80233e-10)
(0.00185663 2.03922e-10 -5.42615e-10)
(0.00185663 2.84454e-10 -7.51895e-10)
(0.00185663 3.83938e-10 -1.02175e-09)
(0.00185663 4.86487e-10 -1.34464e-09)
(0.00185663 5.54347e-10 -1.5637e-09)
(0.00185663 4.89595e-10 -1.25088e-09)
(0.00185663 1.31805e-10 -3.9455e-10)
(0.00185663 1.77975e-10 -5.65241e-10)
(0.00185663 2.3602e-10 -7.86869e-10)
(0.00185663 3.03145e-10 -1.07316e-09)
(0.00185663 3.69052e-10 -1.41408e-09)
(0.00185663 4.13599e-10 -1.64553e-09)
(0.00185663 3.73257e-10 -1.32214e-09)
(0.00185663 1.1427e-10 -4.05951e-10)
(0.00185663 1.48392e-10 -5.82229e-10)
(0.00185663 1.88995e-10 -8.11543e-10)
(0.00185663 2.33596e-10 -1.10743e-09)
(0.00185663 2.76182e-10 -1.45814e-09)
(0.00185663 3.06258e-10 -1.69602e-09)
(0.00185663 2.79677e-10 -1.36694e-09)
(0.00185663 9.44406e-11 -4.14552e-10)
(0.00185663 1.18338e-10 -5.94483e-10)
(0.00185663 1.45689e-10 -8.28448e-10)
(0.00185663 1.74668e-10 -1.12978e-09)
(0.00185663 2.01938e-10 -1.48587e-09)
(0.00185663 2.21888e-10 -1.7274e-09)
(0.00185663 2.02911e-10 -1.39517e-09)
(0.241732 -4.1344e-11 1.9396e-10)
(0.241732 -3.82614e-11 2.16122e-10)
(0.241732 -2.92689e-11 2.40533e-10)
(0.241732 -1.95633e-11 2.14418e-10)
(0.241732 -1.04671e-11 1.63433e-10)
(0.241732 -2.50381e-12 1.16532e-10)
(0.241732 4.2844e-12 7.99256e-11)
(0.241732 -3.27688e-12 1.95048e-10)
(0.241732 1.81786e-12 2.17237e-10)
(0.241732 5.45796e-12 2.41454e-10)
(0.241732 8.92119e-12 2.15109e-10)
(0.241732 1.20884e-11 1.63904e-10)
(0.241732 1.4697e-11 1.16818e-10)
(0.241732 1.67686e-11 8.00702e-11)
(0.241732 3.25094e-11 1.95302e-10)
(0.241732 3.98253e-11 2.17431e-10)
(0.241732 3.90047e-11 2.41571e-10)
(0.241732 3.7018e-11 2.15146e-10)
(0.241732 3.47155e-11 1.63878e-10)
(0.241732 3.21607e-11 1.16744e-10)
(0.241732 2.95424e-11 7.99589e-11)
(0.241732 6.87451e-11 1.94842e-10)
(0.241732 7.86599e-11 2.16812e-10)
(0.241732 7.34785e-11 2.40959e-10)
(0.241732 6.59777e-11 2.14581e-10)
(0.241732 5.80538e-11 1.63375e-10)
(0.241732 5.01539e-11 1.16307e-10)
(0.241732 4.26619e-11 7.95887e-11)
(0.241732 1.08176e-10 1.93674e-10)
(0.241732 1.21147e-10 2.1537e-10)
(0.241732 1.11019e-10 2.39597e-10)
(0.241732 9.71619e-11 2.13373e-10)
(0.241732 8.28233e-11 1.62357e-10)
(0.241732 6.89594e-11 1.15488e-10)
(0.241732 5.61696e-11 7.89531e-11)
(0.241732 1.53704e-10 1.91725e-10)
(0.241732 1.705e-10 2.13019e-10)
(0.241732 1.54099e-10 2.37379e-10)
(0.241732 1.32054e-10 2.11423e-10)
(0.241732 1.09711e-10 1.60742e-10)
(0.241732 8.87592e-11 1.1422e-10)
(0.241732 6.99996e-11 7.80023e-11)
(0.0211851 -5.03315e-11 9.49487e-10)
(0.0211851 -4.5164e-11 1.08603e-09)
(0.0211851 -3.34836e-11 9.66546e-10)
(0.0211851 -2.09055e-11 7.43265e-10)
(0.0211851 -8.98676e-12 5.29992e-10)
(0.0211851 1.52155e-12 3.66994e-10)
(0.0211851 1.05195e-11 2.48462e-10)
(0.0211851 2.85905e-12 9.5285e-10)
(0.0211851 9.91762e-12 1.0894e-09)
(0.0211851 1.42076e-11 9.69284e-10)
(0.0211851 1.84491e-11 7.45298e-10)
(0.0211851 2.23101e-11 5.31371e-10)
(0.0211851 2.54674e-11 3.67824e-10)
(0.0211851 2.79801e-11 2.48866e-10)
(0.0211851 5.3141e-11 9.5354e-10)
(0.0211851 6.26124e-11 1.08991e-09)
(0.0211851 6.06346e-11 9.69571e-10)
(0.0211851 5.74585e-11 7.45361e-10)
(0.0211851 5.38167e-11 5.31249e-10)
(0.0211851 4.98578e-11 3.67561e-10)
(0.0211851 4.5873e-11 2.48503e-10)
(0.0211851 1.04572e-10 9.51915e-10)
(0.0211851 1.16871e-10 1.08787e-09)
(0.0211851 1.08629e-10 9.67598e-10)
(0.0211851 9.78723e-11 7.43564e-10)
(0.0211851 8.64433e-11 5.29666e-10)
(0.0211851 7.50379e-11 3.66209e-10)
(0.0211851 6.42451e-11 2.47373e-10)
(0.0211851 1.61052e-10 9.47897e-10)
(0.0211851 1.76698e-10 1.08315e-09)
(0.0211851 1.61236e-10 9.63223e-10)
(0.0211851 1.416e-10 7.39759e-10)
(0.0211851 1.21166e-10 5.26498e-10)
(0.0211851 1.01374e-10 3.63673e-10)
(0.0211851 8.31386e-11 2.45407e-10)
(0.0211851 2.2693e-10 9.41053e-10)
(0.0211851 2.46853e-10 1.07526e-09)
(0.0211851 2.22027e-10 9.55965e-10)
(0.0211851 1.90746e-10 7.33546e-10)
(0.0211851 1.58935e-10 5.21458e-10)
(0.0211851 1.29097e-10 3.59773e-10)
(0.0211851 1.0242e-10 2.42498e-10)
(0.00185663 -4.39188e-11 2.0747e-09)
(0.00185663 -3.84432e-11 2.34108e-09)
(0.00185663 -2.78609e-11 1.90188e-09)
(0.00185663 -1.64412e-11 1.37447e-09)
(0.00185663 -5.51978e-12 9.57907e-10)
(0.00185663 4.18982e-12 6.60752e-10)
(0.00185663 1.25987e-11 4.48382e-10)
(0.00185663 7.05353e-12 2.08036e-09)
(0.00185663 1.39195e-11 2.3466e-09)
(0.00185663 1.76593e-11 1.90631e-09)
(0.00185663 2.1334e-11 1.37772e-09)
(0.00185663 2.46908e-11 9.60075e-10)
(0.00185663 2.74383e-11 6.62025e-10)
(0.00185663 2.96395e-11 4.4894e-10)
(0.00185663 5.59509e-11 2.08122e-09)
(0.00185663 6.46654e-11 2.34713e-09)
(0.00185663 6.24335e-11 1.90648e-09)
(0.00185663 5.90876e-11 1.37756e-09)
(0.00185663 5.52988e-11 9.59647e-10)
(0.00185663 5.12174e-11 6.61395e-10)
(0.00185663 4.7134e-11 4.48164e-10)
(0.00185663 1.0625e-10 2.07774e-09)
(0.00185663 1.17155e-10 2.34304e-09)
(0.00185663 1.08883e-10 1.90264e-09)
(0.00185663 9.82766e-11 1.37411e-09)
(0.00185663 8.70048e-11 9.56636e-10)
(0.00185663 7.57489e-11 6.58835e-10)
(0.00185663 6.50743e-11 4.46021e-10)
(0.00185663 1.61472e-10 2.06961e-09)
(0.00185663 1.74956e-10 2.33398e-09)
(0.00185663 1.59649e-10 1.89441e-09)
(0.00185663 1.40508e-10 1.36704e-09)
(0.00185663 1.20601e-10 9.50798e-10)
(0.00185663 1.01293e-10 6.54177e-10)
(0.00185663 8.34279e-11 4.42405e-10)
(0.00185663 2.25648e-10 2.05577e-09)
(0.00185663 2.42342e-10 2.31868e-09)
(0.00185663 2.17846e-10 1.8807e-09)
(0.00185663 1.87542e-10 1.35553e-09)
(0.00185663 1.56813e-10 9.41592e-10)
(0.00185663 1.27938e-10 6.47085e-10)
(0.00185663 1.01992e-10 4.37112e-10)
(0.241732 1.01346e-11 5.16859e-11)
(0.241732 1.54383e-11 2.90313e-11)
(0.241732 2.06574e-11 9.62517e-12)
(0.241732 2.6271e-11 -8.4104e-12)
(0.241732 3.27441e-11 -2.6435e-11)
(0.241732 4.04718e-11 -4.52585e-11)
(0.241732 1.84676e-11 5.17177e-11)
(0.241732 2.00352e-11 2.89613e-11)
(0.241732 2.1719e-11 9.45547e-12)
(0.241732 2.37731e-11 -8.68107e-12)
(0.241732 2.64355e-11 -2.68326e-11)
(0.241732 2.99073e-11 -4.58182e-11)
(0.241732 2.70153e-11 5.15795e-11)
(0.241732 2.47247e-11 2.88023e-11)
(0.241732 2.27502e-11 9.26918e-12)
(0.241732 2.11663e-11 -8.90424e-12)
(0.241732 2.00098e-11 -2.71077e-11)
(0.241732 1.93034e-11 -4.61577e-11)
(0.241732 3.57518e-11 5.1275e-11)
(0.241732 2.94798e-11 2.8556e-11)
(0.241732 2.37653e-11 9.06773e-12)
(0.241732 1.85037e-11 -9.06839e-12)
(0.241732 1.35483e-11 -2.72521e-11)
(0.241732 8.74466e-12 -4.62987e-11)
(0.241732 4.46262e-11 5.07994e-11)
(0.241732 3.42459e-11 2.8212e-11)
(0.241732 2.47555e-11 8.82812e-12)
(0.241732 1.58336e-11 -9.20976e-12)
(0.241732 7.11729e-12 -2.72966e-11)
(0.241732 -1.75229e-12 -4.62533e-11)
(0.241732 5.34872e-11 5.01184e-11)
(0.241732 3.88888e-11 2.77538e-11)
(0.241732 2.56526e-11 8.55561e-12)
(0.241732 1.31713e-11 -9.31448e-12)
(0.241732 8.05145e-13 -2.72411e-11)
(0.241732 -1.20847e-11 -4.60364e-11)
(0.0211851 1.83449e-11 1.59789e-10)
(0.0211851 2.55458e-11 8.94605e-11)
(0.0211851 3.27671e-11 2.92464e-11)
(0.0211851 4.06676e-11 -2.70354e-11)
(0.0211851 4.9878e-11 -8.43496e-11)
(0.0211851 6.09909e-11 -1.46881e-10)
(0.0211851 3.00863e-11 1.59849e-10)
(0.0211851 3.2108e-11 8.922e-11)
(0.0211851 3.44135e-11 2.87071e-11)
(0.0211851 3.73661e-11 -2.79016e-11)
(0.0211851 4.13092e-11 -8.55912e-11)
(0.0211851 4.6465e-11 -1.48585e-10)
(0.0211851 4.2105e-11 1.59408e-10)
(0.0211851 3.87552e-11 8.87175e-11)
(0.0211851 3.59731e-11 2.8136e-11)
(0.0211851 3.38311e-11 -2.85728e-11)
(0.0211851 3.24378e-11 -8.64198e-11)
(0.0211851 3.1799e-11 -1.49627e-10)
(0.0211851 5.43503e-11 1.58473e-10)
(0.0211851 4.54412e-11 8.79465e-11)
(0.0211851 3.7454e-11 2.74902e-11)
(0.0211851 3.01974e-11 -2.91169e-11)
(0.0211851 2.34928e-11 -8.68965e-11)
(0.0211851 1.71305e-11 -1.50064e-10)
(0.0211851 6.67382e-11 1.56996e-10)
(0.0211851 5.20744e-11 8.68761e-11)
(0.0211851 3.88006e-11 2.67566e-11)
(0.0211851 2.64567e-11 -2.95486e-11)
(0.0211851 1.45441e-11 -8.70503e-11)
(0.0211851 2.54674e-12 -1.49944e-10)
(0.0211851 7.90213e-11 1.54912e-10)
(0.0211851 5.84536e-11 8.54665e-11)
(0.0211851 3.99491e-11 2.59142e-11)
(0.0211851 2.26626e-11 -2.98804e-11)
(0.0211851 5.69468e-12 -8.6898e-11)
(0.0211851 -1.1853e-11 -1.49288e-10)
(0.00185663 1.99864e-11 2.895e-10)
(0.00185663 2.68402e-11 1.62698e-10)
(0.00185663 3.37484e-11 5.31915e-11)
(0.00185663 4.13605e-11 -5.01382e-11)
(0.00185663 5.0284e-11 -1.56877e-10)
(0.00185663 6.09799e-11 -2.76715e-10)
(0.00185663 3.14942e-11 2.89467e-10)
(0.00185663 3.33224e-11 1.62144e-10)
(0.00185663 3.54523e-11 5.21406e-11)
(0.00185663 3.82205e-11 -5.17388e-11)
(0.00185663 4.19612e-11 -1.59144e-10)
(0.00185663 4.6908e-11 -2.79809e-10)
(0.00185663 4.32733e-11 2.88579e-10)
(0.00185663 3.98591e-11 1.61151e-10)
(0.00185663 3.70113e-11 5.10201e-11)
(0.00185663 3.48201e-11 -5.30412e-11)
(0.00185663 3.33346e-11 -1.60724e-10)
(0.00185663 3.25922e-11 -2.81757e-10)
(0.00185663 5.52555e-11 2.868e-10)
(0.00185663 4.64022e-11 1.59671e-10)
(0.00185663 3.84296e-11 4.97703e-11)
(0.00185663 3.12101e-11 -5.41116e-11)
(0.00185663 2.45383e-11 -1.61669e-10)
(0.00185663 1.82184e-11 -2.82626e-10)
(0.00185663 6.72991e-11 2.84062e-10)
(0.00185663 5.28343e-11 1.57665e-10)
(0.00185663 3.96981e-11 4.83761e-11)
(0.00185663 2.74871e-11 -5.49727e-11)
(0.00185663 1.57016e-11 -1.62042e-10)
(0.00185663 3.86579e-12 -2.8251e-10)
(0.00185663 7.91224e-11 2.80249e-10)
(0.00185663 5.89261e-11 1.5506e-10)
(0.00185663 4.07025e-11 4.67902e-11)
(0.00185663 2.36684e-11 -5.56491e-11)
(0.00185663 6.94741e-12 -1.61854e-10)
(0.00185663 -1.03031e-11 -2.8142e-10)
(0.241732 4.97771e-11 -6.44656e-11)
(0.241732 6.08017e-11 -8.07879e-11)
(0.241732 7.33002e-11 -8.58896e-11)
(0.241732 8.64335e-11 -6.837e-11)
(0.241732 9.88996e-11 -8.24362e-12)
(0.241732 1.07317e-10 1.5507e-10)
(0.241732 9.36435e-11 3.46169e-10)
(0.241732 3.42913e-11 -6.52229e-11)
(0.241732 3.95888e-11 -8.1782e-11)
(0.241732 4.56213e-11 -8.71661e-11)
(0.241732 5.19221e-11 -6.99455e-11)
(0.241732 5.78688e-11 -1.0105e-11)
(0.241732 6.16628e-11 1.52996e-10)
(0.241732 5.18706e-11 3.44378e-10)
(0.241732 1.90306e-11 -6.56462e-11)
(0.241732 1.91364e-11 -8.23145e-11)
(0.241732 1.94932e-11 -8.78323e-11)
(0.241732 1.99433e-11 -7.07411e-11)
(0.241732 2.03806e-11 -1.1026e-11)
(0.241732 2.00596e-11 1.51989e-10)
(0.241732 1.34134e-11 3.43538e-10)
(0.241732 3.93895e-12 -6.57822e-11)
(0.241732 -9.71776e-13 -8.24455e-11)
(0.241732 -6.03774e-12 -8.7974e-11)
(0.241732 -1.1185e-11 -7.08889e-11)
(0.241732 -1.6107e-11 -1.11739e-11)
(0.241732 -2.06113e-11 1.51841e-10)
(0.241732 -2.4561e-11 3.43455e-10)
(0.241732 -1.10865e-11 -6.56435e-11)
(0.241732 -2.10934e-11 -8.22057e-11)
(0.241732 -3.18041e-11 -8.76289e-11)
(0.241732 -4.29428e-11 -7.04333e-11)
(0.241732 -5.38184e-11 -1.06151e-11)
(0.241732 -6.31945e-11 1.52464e-10)
(0.241732 -6.47901e-11 3.4406e-10)
(0.241732 -2.60445e-11 -6.52459e-11)
(0.241732 -4.14628e-11 -8.16025e-11)
(0.241732 -5.84553e-11 -8.67987e-11)
(0.241732 -7.6633e-11 -6.93727e-11)
(0.241732 -9.4917e-11 -9.35113e-12)
(0.241732 -1.10684e-10 1.53856e-10)
(0.241732 -1.10261e-10 3.45366e-10)
(0.0211851 7.44516e-11 -2.17722e-10)
(0.0211851 9.03674e-11 -2.97592e-10)
(0.0211851 1.0834e-10 -3.8294e-10)
(0.0211851 1.27118e-10 -4.67858e-10)
(0.0211851 1.4473e-10 -5.31145e-10)
(0.0211851 1.57679e-10 -4.59675e-10)
(0.0211851 1.41156e-10 -1.53159e-10)
(0.0211851 5.29997e-11 -2.20022e-10)
(0.0211851 6.09134e-11 -3.0064e-10)
(0.0211851 6.9853e-11 -3.86875e-10)
(0.0211851 7.91087e-11 -4.72743e-10)
(0.0211851 8.7754e-11 -5.3692e-10)
(0.0211851 9.40222e-11 -4.6608e-10)
(0.0211851 8.19195e-11 -1.58767e-10)
(0.0211851 3.18487e-11 -2.21334e-10)
(0.0211851 3.25043e-11 -3.02281e-10)
(0.0211851 3.35606e-11 -3.88911e-10)
(0.0211851 3.47409e-11 -4.75193e-10)
(0.0211851 3.58299e-11 -5.39753e-10)
(0.0211851 3.61929e-11 -4.69167e-10)
(0.0211851 2.76372e-11 -1.61374e-10)
(0.0211851 1.08941e-11 -2.21752e-10)
(0.0211851 4.60742e-12 -3.02693e-10)
(0.0211851 -1.83081e-12 -3.89339e-10)
(0.0211851 -8.33887e-12 -4.75623e-10)
(0.0211851 -1.45367e-11 -5.40177e-10)
(0.0211851 -2.00917e-11 -4.69566e-10)
(0.0211851 -2.56529e-11 -1.61538e-10)
(0.0211851 -9.96497e-12 -2.21344e-10)
(0.0211851 -2.32864e-11 -3.01967e-10)
(0.0211851 -3.74693e-11 -3.88265e-10)
(0.0211851 -5.21482e-11 -4.74174e-10)
(0.0211851 -6.64029e-11 -5.38368e-10)
(0.0211851 -7.8774e-11 -4.67469e-10)
(0.0211851 -8.17935e-11 -1.59394e-10)
(0.0211851 -3.07326e-11 -2.20125e-10)
(0.0211851 -5.14788e-11 -3.00102e-10)
(0.0211851 -7.42535e-11 -3.85667e-10)
(0.0211851 -9.85188e-11 -4.70796e-10)
(0.0211851 -1.22794e-10 -5.34232e-10)
(0.0211851 -1.44063e-10 -4.62732e-10)
(0.0211851 -1.45014e-10 -1.54744e-10)
(0.00185663 7.38514e-11 -4.20762e-10)
(0.00185663 8.90178e-11 -6.02961e-10)
(0.00185663 1.06021e-10 -8.39699e-10)
(0.00185663 1.23642e-10 -1.14412e-09)
(0.00185663 1.4009e-10 -1.50317e-09)
(0.00185663 1.52355e-10 -1.74677e-09)
(0.00185663 1.38177e-10 -1.41269e-09)
(0.00185663 5.31561e-11 -4.24924e-10)
(0.00185663 6.06753e-11 -6.08445e-10)
(0.00185663 6.91238e-11 -8.46727e-10)
(0.00185663 7.78399e-11 -1.15281e-09)
(0.00185663 8.59511e-11 -1.51342e-09)
(0.00185663 9.19225e-11 -1.75815e-09)
(0.00185663 8.12699e-11 -1.4229e-09)
(0.00185663 3.25393e-11 -4.27338e-10)
(0.00185663 3.30766e-11 -6.11434e-10)
(0.00185663 3.39698e-11 -8.50411e-10)
(0.00185663 3.49793e-11 -1.15722e-09)
(0.00185663 3.59206e-11 -1.51849e-09)
(0.00185663 3.62434e-11 -1.76368e-09)
(0.00185663 2.84611e-11 -1.42771e-09)
(0.00185663 1.20341e-11 -4.28178e-10)
(0.00185663 5.82262e-12 -6.12268e-10)
(0.00185663 -5.17843e-13 -8.51248e-10)
(0.00185663 -6.89501e-12 -1.15804e-09)
(0.00185663 -1.29438e-11 -1.51928e-09)
(0.00185663 -1.83371e-11 -1.7644e-09)
(0.00185663 -2.36864e-11 -1.428e-09)
(0.00185663 -8.43241e-12 -4.27546e-10)
(0.00185663 -2.14694e-11 -6.11062e-10)
(0.00185663 -3.52947e-11 -8.49401e-10)
(0.00185663 -4.95504e-11 -1.15549e-09)
(0.00185663 -6.335e-11 -1.51602e-09)
(0.00185663 -7.53241e-11 -1.76051e-09)
(0.00185663 -7.86288e-11 -1.4239e-09)
(0.00185663 -2.87898e-11 -4.25449e-10)
(0.00185663 -4.90187e-11 -6.07798e-10)
(0.00185663 -7.11409e-11 -8.44793e-10)
(0.00185663 -9.46283e-11 -1.14939e-09)
(0.00185663 -1.18055e-10 -1.50839e-09)
(0.00185663 -1.38604e-10 -1.75152e-09)
(0.00185663 -1.40287e-10 -1.41482e-09)
(0.241732 2.0868e-10 1.88905e-10)
(0.241732 2.30802e-10 2.09687e-10)
(0.241732 2.05759e-10 2.34184e-10)
(0.241732 1.72244e-10 2.08581e-10)
(0.241732 1.39237e-10 1.58411e-10)
(0.241732 1.09485e-10 1.12435e-10)
(0.241732 8.38537e-11 7.67023e-11)
(0.241732 2.76968e-10 1.85295e-10)
(0.241732 3.07391e-10 2.05564e-10)
(0.241732 2.69664e-10 2.2999e-10)
(0.241732 2.19171e-10 2.04686e-10)
(0.241732 1.71398e-10 1.5521e-10)
(0.241732 1.3051e-10 1.10036e-10)
(0.241732 9.69717e-11 7.50069e-11)
(0.241732 3.6206e-10 1.81547e-10)
(0.241732 4.05581e-10 2.01556e-10)
(0.241732 3.48482e-10 2.25082e-10)
(0.241732 2.72791e-10 1.99693e-10)
(0.241732 2.04682e-10 1.51022e-10)
(0.241732 1.50065e-10 1.0697e-10)
(0.241732 1.07825e-10 7.2901e-11)
(0.241732 4.61659e-10 1.78569e-10)