/*--------------------------------*- C++ -*----------------------------------*\
  =========                 |
  \\      /  F ield         | OpenFOAM: The Open Source CFD Toolbox
   \\    /   O peration     | Website:  https://openfoam.org
    \\  /    A nd           | Version:  7
     \\/     M anipulation  |
\*---------------------------------------------------------------------------*/
FoamFile
{
    version     2.0;
    format      ascii;
    class       volScalarField;
    location    "4.5";
    object      p;
}
// * * * * * * * * * * * * * * * * * * * * * * * * * * * * * * * * * * * * * //

dimensions      [0 2 -2 0 0 0 0];

internalField   nonuniform List<scalar> 
7784
(
6.26571e-12
-9.40652e-05
-0.00022096
-0.000328137
-0.000410138
-0.000472181
-0.00051988
-1.56521e-05
-0.000114739
-0.000237241
-0.000337805
-0.00041538
-0.000474951
-0.000521173
-4.21758e-05
-0.000137688
-0.000253027
-0.00034746
-0.000421126
-0.000478346
-0.000523108
-6.2272e-05
-0.000154337
-0.000264932
-0.000355359
-0.000426206
-0.000481624
-0.00052508
-7.63373e-05
-0.000166279
-0.000273931
-0.000361682
-0.000430437
-0.000484267
-0.000526802
-8.61227e-05
-0.000174764
-0.00028054
-0.000366505
-0.000433781
-0.000486428
-0.000528243
-9.27015e-05
-0.000180557
-0.000285179
-0.000370006
-0.000436284
-0.000488037
-0.000529375
-9.86079e-05
-0.000192743
-0.000299203
-0.000380651
-0.00044234
-0.000491285
-0.000531554
-0.000110505
-0.000209065
-0.00031135
-0.000387614
-0.000446038
-0.000493154
-0.000532372
-0.000128369
-0.000224037
-0.000321266
-0.000393602
-0.000449653
-0.000495265
-0.000533412
-0.000141882
-0.000234647
-0.000328623
-0.000398502
-0.000452881
-0.000497225
-0.000534529
-0.000151764
-0.000242739
-0.000334624
-0.000402747
-0.000455801
-0.000499221
-0.000535665
-0.000159088
-0.000248945
-0.000339408
-0.000406251
-0.000458289
-0.000500963
-0.000536715
-0.000164281
-0.000253446
-0.000342987
-0.000408959
-0.000460275
-0.000502442
-0.000537612
-0.000198356
-0.000275854
-0.000357802
-0.000420688
-0.000469951
-0.000510367
-0.000544538
-0.000205912
-0.00028579
-0.000364766
-0.000424549
-0.000471899
-0.000511193
-0.000544677
-0.000216998
-0.000295013
-0.000370921
-0.000428326
-0.000474176
-0.000512473
-0.000545253
-0.000225885
-0.00030206
-0.000375896
-0.000431688
-0.000476397
-0.00051385
-0.000546014
-0.000232789
-0.000307772
-0.000380176
-0.000434732
-0.000478488
-0.000515223
-0.000546813
-0.000238134
-0.000312345
-0.000383735
-0.000437355
-0.000480351
-0.000516493
-0.000547589
-0.000242053
-0.000315782
-0.000386495
-0.000439457
-0.000481895
-0.000517587
-0.000548278
-0.00055817
-0.000590528
-0.000619563
-0.000647435
-0.000676001
-0.000707173
-0.000558644
-0.000590505
-0.000619227
-0.000646856
-0.000675141
-0.000705888
-0.000559543
-0.000590724
-0.000619022
-0.00064632
-0.000674268
-0.000704595
-0.000560561
-0.00059108
-0.000618937
-0.000645872
-0.00067346
-0.000703369
-0.00056152
-0.000591466
-0.000618908
-0.00064549
-0.000672731
-0.000702248
-0.000562363
-0.000591834
-0.000618913
-0.000645178
-0.000672108
-0.000701286
-0.000563054
-0.000592158
-0.000618937
-0.000644936
-0.000671607
-0.00070051
-0.000565462
-0.000595247
-0.000622882
-0.000649929
-0.000677935
-0.000708503
-0.000565569
-0.000594964
-0.000622378
-0.000649249
-0.000677032
-0.000707318
-0.000565947
-0.00059493
-0.00062203
-0.00064863
-0.000676121
-0.000706037
-0.000566484
-0.00059506
-0.000621817
-0.000648111
-0.000675287
-0.000704831
-0.000567069
-0.000595247
-0.000621667
-0.000647659
-0.000674529
-0.000703726
-0.000567641
-0.000595458
-0.00062157
-0.000647287
-0.00067388
-0.000702771
-0.000568145
-0.000595658
-0.000621513
-0.000646995
-0.000673356
-0.000701996
-0.000574162
-0.000600806
-0.000625888
-0.000650682
-0.000676513
-0.00070442
-0.000573877
-0.00060029
-0.00062524
-0.000649904
-0.000675479
-0.000703259
-0.000573976
-0.000600071
-0.000624785
-0.000649238
-0.000674575
-0.000702069
-0.000574287
-0.000600044
-0.000624484
-0.000648687
-0.000673765
-0.000700986
-0.000574661
-0.000600088
-0.000624253
-0.000648206
-0.000673026
-0.000699966
-0.000575055
-0.00060018
-0.000624089
-0.000647807
-0.000672389
-0.000699064
-0.000575423
-0.000600289
-0.000623978
-0.000647494
-0.000671874
-0.000698328
-0.000743067
-0.000786944
-0.000842527
-0.000912718
-0.00099679
-0.00107213
-0.00103435
-0.00074128
-0.000784388
-0.000838711
-0.000906908
-0.000988792
-0.00106734
-0.00103756
-0.000739426
-0.000781645
-0.000834693
-0.000901062
-0.000980296
-0.00105626
-0.00102543
-0.000737648
-0.000779095
-0.000831061
-0.000895938
-0.000973264
-0.0010473
-0.00101536
-0.00073604
-0.000776849
-0.000827963
-0.000891739
-0.000967774
-0.00104062
-0.00100801
-0.000734676
-0.000774984
-0.000825472
-0.000888484
-0.000963667
-0.00103574
-0.0010027
-0.000733586
-0.000773523
-0.000823571
-0.000886076
-0.000960722
-0.00103233
-0.000999006
-0.000743557
-0.000785436
-0.000836042
-0.0008957
-0.000962937
-0.00102407
-0.00101132
-0.000741943
-0.000783116
-0.000832634
-0.000890468
-0.000955415
-0.00101854
-0.00101189
-0.000740126
-0.00078052
-0.000828973
-0.000885296
-0.000948215
-0.00100966
-0.00100298
-0.000738417
-0.000778141
-0.000825717
-0.000880925
-0.000942504
-0.00100281
-0.000995702
-0.000736872
-0.000776038
-0.000822916
-0.000877273
-0.000937947
-0.000997576
-0.000990237
-0.000735552
-0.000774275
-0.000820628
-0.000874366
-0.000934411
-0.000993562
-0.000986024
-0.000734492
-0.000772882
-0.000818857
-0.000872169
-0.000931799
-0.00099063
-0.000982941
-0.000735965
-0.000772846
-0.000815864
-0.000864443
-0.000916378
-0.00096199
-0.000963301
-0.000734487
-0.000770806
-0.00081299
-0.000860215
-0.000910525
-0.000956889
-0.000960877
-0.000732839
-0.000768529
-0.000809872
-0.000855983
-0.000904852
-0.00095028
-0.000954642
-0.000731293
-0.000766423
-0.000807063
-0.000852351
-0.000900308
-0.000945143
-0.000949603
-0.000729886
-0.000764546
-0.000804612
-0.000849266
-0.000896593
-0.00094107
-0.000945607
-0.000728673
-0.000762959
-0.000802582
-0.000846768
-0.000893641
-0.000937844
-0.000942391
-0.000727693
-0.000761695
-0.000800995
-0.000844852
-0.000891417
-0.000935429
-0.000939958
-9.69438e-05
-0.000184351
-0.000288295
-0.000372424
-0.000438057
-0.000489201
-0.000530212
-9.94745e-05
-0.000186644
-0.000290214
-0.000373943
-0.000439194
-0.000489971
-0.000530767
-0.000100658
-0.000187725
-0.000291129
-0.000374675
-0.000439748
-0.000490354
-0.000531044
-0.000100658
-0.000187725
-0.000291129
-0.000374675
-0.000439748
-0.000490354
-0.000531044
-9.94739e-05
-0.000186643
-0.000290214
-0.000373942
-0.000439193
-0.000489971
-0.000530767
-9.69426e-05
-0.00018435
-0.000288294
-0.000372423
-0.000438057
-0.000489201
-0.000530212
-0.000167757
-0.000256523
-0.000345501
-0.000410913
-0.000461743
-0.000503557
-0.000538304
-0.00016988
-0.000258436
-0.000347095
-0.000412175
-0.000462705
-0.000504287
-0.000538771
-0.000170887
-0.000259351
-0.000347868
-0.000412792
-0.00046318
-0.000504648
-0.000539005
-0.000170886
-0.000259351
-0.000347868
-0.000412792
-0.00046318
-0.000504648
-0.000539005
-0.00016988
-0.000258435
-0.000347095
-0.000412174
-0.000462705
-0.000504287
-0.000538771
-0.000167756
-0.000256522
-0.0003455
-0.000410913
-0.000461743
-0.000503557
-0.000538304
-0.000244744
-0.000318197
-0.000388489
-0.000441014
-0.000483067
-0.000518437
-0.000548825
-0.000246419
-0.000319727
-0.000389776
-0.000442037
-0.000483848
-0.00051901
-0.0005492
-0.000247221
-0.000320467
-0.000390406
-0.000442543
-0.000484238
-0.000519297
-0.000549391
-0.000247221
-0.000320467
-0.000390406
-0.000442543
-0.000484238
-0.000519297
-0.000549391
-0.000246419
-0.000319727
-0.000389775
-0.000442037
-0.000483848
-0.00051901
-0.000549201
-0.000244744
-0.000318197
-0.000388488
-0.000441014
-0.000483067
-0.000518437
-0.000548825
-0.000563578
-0.000592415
-0.000618966
-0.000644759
-0.000671232
-0.000699929
-0.000563932
-0.000592598
-0.000618991
-0.000644645
-0.000670984
-0.000699544
-0.00056411
-0.000592698
-0.000619006
-0.000644589
-0.000670861
-0.000699351
-0.00056411
-0.000592697
-0.000619006
-0.000644588
-0.00067086
-0.000699351
-0.000563931
-0.000592597
-0.000618991
-0.000644644
-0.000670983
-0.000699542
-0.000563578
-0.000592415
-0.000618965
-0.000644758
-0.00067123
-0.000699926
-0.000568544
-0.000595825
-0.000621481
-0.000646781
-0.000672963
-0.000701414
-0.000568817
-0.000595938
-0.000621464
-0.000646641
-0.000672702
-0.000701027
-0.000568955
-0.000595991
-0.000621456
-0.000646571
-0.000672572
-0.000700834
-0.000568955
-0.000595991
-0.000621456
-0.000646571
-0.000672572
-0.000700834
-0.000568817
-0.000595938
-0.000621464
-0.00064664
-0.000672701
-0.000701026
-0.000568544
-0.000595825
-0.00062148
-0.00064678
-0.000672961
-0.000701411
-0.000575724
-0.000600389
-0.000623906
-0.000647263
-0.000671487
-0.000697773
-0.000575935
-0.000600463
-0.000623863
-0.000647112
-0.000671229
-0.000697403
-0.000576044
-0.000600501
-0.000623842
-0.000647038
-0.0006711
-0.000697219
-0.000576044
-0.000600501
-0.000623842
-0.000647038
-0.0006711
-0.000697218
-0.000575936
-0.000600463
-0.000623863
-0.000647112
-0.000671228
-0.000697402
-0.000575725
-0.00060039
-0.000623906
-0.000647263
-0.000671486
-0.000697771
-0.000732776
-0.000772454
-0.000822206
-0.000884388
-0.000958709
-0.00103005
-0.000996559
-0.000732243
-0.000771755
-0.000821327
-0.000883318
-0.000957454
-0.00102864
-0.000995067
-0.000731978
-0.00077141
-0.000820896
-0.000882798
-0.000956851
-0.00102797
-0.00099436
-0.000731977
-0.000771409
-0.000820895
-0.000882797
-0.000956849
-0.00102797
-0.000994358
-0.00073224
-0.000771752
-0.000821323
-0.000883314
-0.00095745
-0.00102864
-0.000995063
-0.000732772
-0.000772448
-0.0008222
-0.000884381
-0.000958702
-0.00103004
-0.000996551
-0.000733701
-0.000771856
-0.000817574
-0.000870607
-0.000929976
-0.000988608
-0.000980824
-0.000733178
-0.000771183
-0.000816742
-0.000869607
-0.000928823
-0.000987342
-0.000979504
-0.000732918
-0.00077085
-0.000816333
-0.000869119
-0.000928264
-0.000986732
-0.00097887
-0.000732917
-0.000770849
-0.000816332
-0.000869118
-0.000928263
-0.00098673
-0.000978869
-0.000733176
-0.00077118
-0.000816739
-0.000869603
-0.000928819
-0.000987338
-0.000979499
-0.000733698
-0.000771851
-0.000817568
-0.000870601
-0.000929969
-0.000988601
-0.000980816
-0.000726958
-0.000760758
-0.000799835
-0.000843473
-0.00088984
-0.000933728
-0.000938243
-0.00072647
-0.00076014
-0.000799077
-0.000842582
-0.000888832
-0.000932648
-0.000937154
-0.000726227
-0.000759834
-0.000798703
-0.000842145
-0.00088834
-0.000932123
-0.000936626
-0.000726226
-0.000759833
-0.000798702
-0.000842144
-0.000888339
-0.000932121
-0.000936625
-0.000726468
-0.000760138
-0.000799074
-0.000842579
-0.000888828
-0.000932644
-0.00093715
-0.000726955
-0.000760754
-0.00079983
-0.000843467
-0.000889834
-0.000933722
-0.000938235
-9.2699e-05
-0.000180555
-0.000285177
-0.000370005
-0.000436283
-0.000488037
-0.000529375
-8.61183e-05
-0.000174761
-0.000280537
-0.000366503
-0.00043378
-0.000486428
-0.000528243
-7.63301e-05
-0.000166273
-0.000273928
-0.00036168
-0.000430436
-0.000484268
-0.000526802
-6.22616e-05
-0.000154329
-0.000264928
-0.000355356
-0.000426205
-0.000481624
-0.00052508
-4.2161e-05
-0.000137677
-0.000253022
-0.000347458
-0.000421126
-0.000478348
-0.00052311
-1.56343e-05
-0.000114726
-0.000237237
-0.000337805
-0.000415382
-0.000474956
-0.000521178
1.62457e-08
-9.40538e-05
-0.000220959
-0.000328142
-0.000410145
-0.000472189
-0.000519889
-0.000164279
-0.000253444
-0.000342985
-0.000408959
-0.000460275
-0.000502442
-0.000537612
-0.000159084
-0.000248941
-0.000339406
-0.00040625
-0.000458288
-0.000500963
-0.000536716
-0.000151756
-0.000242733
-0.000334621
-0.000402745
-0.000455801
-0.000499222
-0.000535667
-0.000141869
-0.000234637
-0.000328618
-0.000398501
-0.000452881
-0.000497227
-0.000534532
-0.00012835
-0.000224023
-0.00032126
-0.0003936
-0.000449654
-0.000495269
-0.000533417
-0.00011048
-0.000209047
-0.000311344
-0.000387614
-0.000446042
-0.00049316
-0.000532379
-9.8583e-05
-0.000192726
-0.0002992
-0.000380656
-0.000442349
-0.000491295
-0.000531564
-0.000242051
-0.000315781
-0.000386494
-0.000439457
-0.000481895
-0.000517587
-0.000548279
-0.00023813
-0.000312342
-0.000383733
-0.000437355
-0.000480352
-0.000516494
-0.000547591
-0.000232782
-0.000307767
-0.000380173
-0.000434732
-0.000478489
-0.000515224
-0.000546816
-0.000225871
-0.000302051
-0.000375892
-0.000431687
-0.000476398
-0.000513853
-0.000546018
-0.000216977
-0.000295
-0.000370916
-0.000428325
-0.000474178
-0.000512477
-0.000545259
-0.000205885
-0.000285774
-0.000364761
-0.000424551
-0.000471904
-0.0005112
-0.000544686
-0.000198329
-0.000275839
-0.000357802
-0.000420695
-0.000469962
-0.00051038
-0.000544551
-0.000563053
-0.000592158
-0.000618936
-0.000644934
-0.000671604
-0.000700506
-0.000562363
-0.000591834
-0.000618912
-0.000645176
-0.000672105
-0.000701281
-0.000561521
-0.000591466
-0.000618907
-0.000645488
-0.000672727
-0.000702242
-0.000560562
-0.000591081
-0.000618936
-0.00064587
-0.000673457
-0.000703363
-0.000559545
-0.000590726
-0.000619023
-0.000646319
-0.000674265
-0.00070459
-0.000558648
-0.000590509
-0.00061923
-0.000646857
-0.000675139
-0.000705883
-0.000558178
-0.000590535
-0.000619568
-0.000647438
-0.000676001
-0.000707168
-0.000568145
-0.000595658
-0.000621513
-0.000646994
-0.000673354
-0.000701992
-0.000567642
-0.000595459
-0.00062157
-0.000647286
-0.000673878
-0.000702767
-0.000567071
-0.000595248
-0.000621667
-0.000647659
-0.000674527
-0.000703722
-0.000566487
-0.000595062
-0.000621818
-0.000648111
-0.000675285
-0.000704827
-0.000565952
-0.000594934
-0.000622032
-0.00064863
-0.00067612
-0.000706033
-0.000565576
-0.00059497
-0.000622382
-0.000649251
-0.000677032
-0.000707315
-0.000565473
-0.000595256
-0.000622889
-0.000649933
-0.000677936
-0.000708502
-0.000575424
-0.00060029
-0.000623978
-0.000647493
-0.000671873
-0.000698325
-0.000575057
-0.000600181
-0.00062409
-0.000647806
-0.000672388
-0.000699061
-0.000574663
-0.00060009
-0.000624255
-0.000648206
-0.000673025
-0.000699963
-0.000574291
-0.000600047
-0.000624486
-0.000648687
-0.000673764
-0.000700986
-0.000573982
-0.000600075
-0.000624788
-0.00064924
-0.000674575
-0.000702067
-0.000573885
-0.000600297
-0.000625245
-0.000649906
-0.000675479
-0.000703258
-0.000574173
-0.000600816
-0.000625896
-0.000650688
-0.000676514
-0.000704421
-0.00073358
-0.000773516
-0.000823562
-0.000886066
-0.000960711
-0.00103232
-0.000998994
-0.000734669
-0.000774975
-0.000825461
-0.000888471
-0.000963652
-0.00103573
-0.00100268
-0.000736032
-0.000776838
-0.000827949
-0.000891723
-0.000967755
-0.0010406
-0.00100799
-0.00073764
-0.000779084
-0.000831046
-0.000895919
-0.000973241
-0.00104727
-0.00101533
-0.000739417
-0.000781632
-0.000834676
-0.00090104
-0.000980269
-0.00105623
-0.00102539
-0.000741272
-0.000784376
-0.000838695
-0.000906886
-0.000988763
-0.0010673
-0.00103752
-0.000743061
-0.000786935
-0.000842513
-0.000912698
-0.000996763
-0.00107209
-0.0010343
-0.000734487
-0.000772876
-0.00081885
-0.00087216
-0.000931789
-0.000990619
-0.00098293
-0.000735546
-0.000774267
-0.000820618
-0.000874354
-0.000934398
-0.000993547
-0.000986009
-0.000736866
-0.000776029
-0.000822905
-0.000877259
-0.000937931
-0.000997558
-0.000990217
-0.00073841
-0.000778131
-0.000825704
-0.000880909
-0.000942484
-0.00100279
-0.000995676
-0.000740119
-0.00078051
-0.000828959
-0.000885277
-0.000948191
-0.00100964
-0.00100294
-0.000741937
-0.000783106
-0.00083262
-0.000890448
-0.000955391
-0.00101851
-0.00101185
-0.000743553
-0.000785429
-0.00083603
-0.000895684
-0.000962915
-0.00102404
-0.00101128
-0.000727689
-0.00076169
-0.000800988
-0.000844844
-0.000891408
-0.000935419
-0.000939947
-0.000728668
-0.000762953
-0.000802574
-0.000846758
-0.000893629
-0.000937831
-0.000942377
-0.00072988
-0.000764539
-0.000804602
-0.000849254
-0.000896578
-0.000941053
-0.000945589
-0.000731288
-0.000766415
-0.000807051
-0.000852336
-0.00090029
-0.000945122
-0.000949579
-0.000732834
-0.000768521
-0.00080986
-0.000855967
-0.000904832
-0.000950254
-0.000954612
-0.000734482
-0.000770798
-0.000812978
-0.000860198
-0.000910503
-0.000956859
-0.000960841
-0.000735963
-0.00077284
-0.000815855
-0.000864428
-0.000916359
-0.000961962
-0.000963265
-0.000303428
-0.000355533
-0.000412445
-0.000459346
-0.000498012
-0.000530678
-0.000558861
-0.000307045
-0.000360502
-0.000415985
-0.000461232
-0.000498771
-0.000530751
-0.000558525
-0.000313124
-0.000365834
-0.000419737
-0.000463555
-0.000500098
-0.000531394
-0.000558693
-0.000318601
-0.00037042
-0.000423111
-0.000465854
-0.000501589
-0.000532281
-0.000559128
-0.000323118
-0.000374294
-0.000426092
-0.00046799
-0.000503043
-0.000533205
-0.000559635
-0.000326736
-0.000377486
-0.000428635
-0.000469882
-0.000504384
-0.000534098
-0.000560161
-0.00032947
-0.000379958
-0.000430664
-0.000471442
-0.000505527
-0.000534889
-0.00056065
-0.00040302
-0.000431315
-0.000466408
-0.000498593
-0.000526744
-0.000551492
-0.000573493
-0.00040405
-0.000433024
-0.000467705
-0.000499094
-0.000526619
-0.000551006
-0.000572819
-0.000406832
-0.000435713
-0.000469698
-0.000500274
-0.000527185
-0.000551151
-0.000572674
-0.000409833
-0.000438434
-0.000471791
-0.000501701
-0.000528079
-0.000551636
-0.000572846
-0.000412487
-0.000440852
-0.000473724
-0.000503099
-0.00052902
-0.000552206
-0.000573119
-0.000414712
-0.000442924
-0.000475437
-0.000504393
-0.000529933
-0.000552799
-0.000573444
-0.000416464
-0.000444589
-0.000476852
-0.000505494
-0.00053074
-0.000553347
-0.000573768
-0.000490293
-0.000500258
-0.00051799
-0.000537343
-0.000555638
-0.000572649
-0.000588412
-0.000490029
-0.000500009
-0.000517837
-0.000536912
-0.000554932
-0.00057182
-0.000587551
-0.000490835
-0.000500962
-0.000518576
-0.000537246
-0.000554942
-0.00057161
-0.000587192
-0.00049218
-0.000502346
-0.000519694
-0.000537989
-0.000555366
-0.00057178
-0.000587163
-0.000493526
-0.000503699
-0.000520831
-0.000538815
-0.000555902
-0.000572072
-0.000587254
-0.000494741
-0.000504941
-0.00052191
-0.000539638
-0.000556473
-0.000572423
-0.000587419
-0.00049575
-0.000505993
-0.000522845
-0.000540372
-0.000557007
-0.000572774
-0.000587608
-0.000564474
-0.000561195
-0.000565714
-0.00057443
-0.000583995
-0.000593786
-0.000603476
-0.000563709
-0.000559933
-0.000564769
-0.00057349
-0.000582987
-0.000592796
-0.000602544
-0.000563455
-0.000559862
-0.000564723
-0.000573279
-0.000582636
-0.000592358
-0.000602052
-0.000563797
-0.00056038
-0.000565171
-0.000573534
-0.000582715
-0.000592295
-0.000601876
-0.000564306
-0.000561023
-0.00056575
-0.000573936
-0.000582942
-0.000592371
-0.000601826
-0.000564839
-0.000561698
-0.00056638
-0.000574404
-0.000583246
-0.000592532
-0.000601863
-0.000565324
-0.000562321
-0.000566972
-0.000574859
-0.000583562
-0.000592724
-0.000601944
-0.000627064
-0.000614133
-0.000608717
-0.000608859
-0.000610939
-0.000614229
-0.000618229
-0.000626245
-0.000612483
-0.000607456
-0.000607721
-0.000609827
-0.0006132
-0.000617302
-0.000625498
-0.000611885
-0.000606986
-0.000607208
-0.000609273
-0.000612637
-0.000616745
-0.000625279
-0.000611881
-0.000607009
-0.00060714
-0.000609119
-0.000612416
-0.000616471
-0.000625276
-0.000612067
-0.000607211
-0.000607244
-0.000609122
-0.000612336
-0.00061632
-0.000625366
-0.000612354
-0.000607523
-0.000607451
-0.000609226
-0.000612353
-0.00061626
-0.00062549
-0.000612659
-0.000607865
-0.000607696
-0.000609374
-0.000612421
-0.000616256
-0.000679859
-0.000659685
-0.000646645
-0.000639935
-0.000635775
-0.000633387
-0.000632229
-0.000679232
-0.000657959
-0.000645316
-0.000638791
-0.000634686
-0.0006324
-0.000631359
-0.000678317
-0.000657124
-0.000644651
-0.000638146
-0.000634048
-0.000631793
-0.000630788
-0.000677807
-0.000656812
-0.000644412
-0.000637882
-0.000633754
-0.000631479
-0.00063046
-0.000677524
-0.000656699
-0.000644348
-0.000637782
-0.000633611
-0.000631297
-0.000630245
-0.00067737
-0.000656714
-0.000644408
-0.000637796
-0.000633573
-0.000631213
-0.000630118
-0.000677296
-0.000656799
-0.000644531
-0.000637872
-0.000633597
-0.000631191
-0.000630053
-0.000583762
-0.00060652
-0.000628171
-0.000649674
-0.000671988
-0.000695634
-0.000583199
-0.000605852
-0.000627456
-0.000648893
-0.000671001
-0.000694697
-0.000583047
-0.000605489
-0.000626939
-0.000648237
-0.00067021
-0.000693635
-0.000583148
-0.000605337
-0.000626581
-0.000647688
-0.000669452
-0.00069258
-0.000583333
-0.000605269
-0.000626301
-0.000647208
-0.00066876
-0.000691634
-0.000583566
-0.000605265
-0.000626092
-0.00064681
-0.000668168
-0.000690829
-0.000583805
-0.000605297
-0.000625946
-0.000646497
-0.000667687
-0.000690173
-0.000593369
-0.00061181
-0.000629492
-0.000647049
-0.000665066
-0.000683999
-0.000592619
-0.000611056
-0.000628761
-0.000646327
-0.000664297
-0.000683249
-0.000592284
-0.000610601
-0.000628222
-0.00064571
-0.000663591
-0.000682394
-0.000592223
-0.000610364
-0.000627841
-0.000645194
-0.000662931
-0.00068155
-0.000592263
-0.000610218
-0.000627538
-0.000644743
-0.000662325
-0.000680765
-0.00059237
-0.000610145
-0.000627309
-0.000644367
-0.000661801
-0.000680077
-0.000592504
-0.000610119
-0.000627143
-0.000644071
-0.000661373
-0.000679511
-0.000603057
-0.000616878
-0.000630227
-0.000643453
-0.000656864
-0.000670617
-0.00060222
-0.000616101
-0.00062952
-0.0006428
-0.000656224
-0.00067004
-0.000601768
-0.000615599
-0.000628988
-0.000642238
-0.000655623
-0.000669366
-0.00060159
-0.000615307
-0.000628604
-0.000641769
-0.000655062
-0.000668691
-0.00060152
-0.000615109
-0.000628296
-0.000641357
-0.000654543
-0.000668052
-0.000601529
-0.000614986
-0.000628059
-0.000641013
-0.000654091
-0.000667483
-0.00060158
-0.000614918
-0.000627885
-0.00064074
-0.00065372
-0.000667009
-0.000612856
-0.000621924
-0.000630769
-0.000639501
-0.000648205
-0.000656792
-0.000612005
-0.000621168
-0.000630109
-0.000638918
-0.000647656
-0.000656352
-0.000611489
-0.000620651
-0.0006296
-0.000638417
-0.00064716
-0.000655829
-0.000611228
-0.000620327
-0.000629226
-0.000637996
-0.000646689
-0.000655293
-0.000611076
-0.000620093
-0.000628922
-0.000637626
-0.00064625
-0.000654779
-0.000611007
-0.000619935
-0.000628685
-0.000637316
-0.000645866
-0.000654317
-0.000610991
-0.000619834
-0.000628508
-0.000637068
-0.000645549
-0.000653927
-0.000622526
-0.000626913
-0.000631282
-0.000635564
-0.000639683
-0.000643335
-0.000621707
-0.000626205
-0.000630681
-0.000635048
-0.000639181
-0.000642993
-0.000621169
-0.000625697
-0.000630206
-0.000634604
-0.000638781
-0.000642586
-0.000620857
-0.000625359
-0.00062985
-0.000634229
-0.000638388
-0.000642162
-0.000620649
-0.000625105
-0.000629555
-0.000633898
-0.000638019
-0.00064175
-0.000620523
-0.000624922
-0.000629323
-0.000633619
-0.000637693
-0.000641376
-0.000620455
-0.000624798
-0.000629148
-0.000633396
-0.000637423
-0.000641058
-0.00063179
-0.000631729
-0.000631806
-0.000631819
-0.000631574
-0.000630689
-0.000631033
-0.000631086
-0.00063127
-0.000631372
-0.000631182
-0.000630425
-0.000630505
-0.000630604
-0.000630837
-0.000630985
-0.000630829
-0.000630101
-0.00063017
-0.000630268
-0.000630502
-0.000630653
-0.000630496
-0.000629762
-0.000629928
-0.000630006
-0.000630223
-0.000630358
-0.000630183
-0.00062943
-0.000629764
-0.00062981
-0.00063
-0.000630108
-0.000629907
-0.000629125
-0.00062966
-0.000629671
-0.000629829
-0.000629907
-0.000629676
-0.000628866
-0.000722158
-0.000752015
-0.00078529
-0.000820902
-0.00085654
-0.000884719
-0.000887572
-0.000720991
-0.00075046
-0.000783156
-0.000817875
-0.000852613
-0.000881197
-0.000884775
-0.000719628
-0.00074866
-0.000780789
-0.000814772
-0.000848665
-0.000876943
-0.000880992
-0.000718304
-0.000746939
-0.000778582
-0.000812011
-0.00084534
-0.000873391
-0.000877753
-0.000717087
-0.000745376
-0.000776613
-0.000809603
-0.000842529
-0.000870424
-0.000874983
-0.000716034
-0.000744035
-0.000774949
-0.000807605
-0.000840234
-0.000868002
-0.000872671
-0.000715175
-0.000742953
-0.000773625
-0.000806041
-0.000838463
-0.000866138
-0.000870868
-0.000704452
-0.000726564
-0.000749895
-0.000773277
-0.000794728
-0.000808339
-0.000806472
-0.000703595
-0.000725497
-0.000748505
-0.000771391
-0.000792492
-0.000806553
-0.000804552
-0.000702544
-0.000724177
-0.000746845
-0.0007693
-0.000789971
-0.000804063
-0.000802488
-0.00070149
-0.000722856
-0.000745215
-0.000767332
-0.000787689
-0.00080175
-0.000800527
-0.000700501
-0.000721626
-0.000743717
-0.000765561
-0.00078569
-0.000799721
-0.000798726
-0.00069963
-0.000720549
-0.00074242
-0.00076405
-0.000784008
-0.000798009
-0.000797165
-0.000698911
-0.000719665
-0.000741367
-0.000762838
-0.000782672
-0.000796649
-0.000795906
-0.000684931
-0.000699631
-0.000714055
-0.000727133
-0.000737307
-0.000739648
-0.000731074
-0.000684335
-0.000698958
-0.000713245
-0.000726088
-0.000736202
-0.000738993
-0.000729762
-0.000683556
-0.000698033
-0.00071214
-0.000724757
-0.000734676
-0.000737614
-0.000728675
-0.000682744
-0.000697056
-0.000710981
-0.000723408
-0.00073317
-0.000736168
-0.000727547
-0.000681967
-0.000696122
-0.000709882
-0.000722152
-0.000731799
-0.000734838
-0.000726443
-0.00068127
-0.000695286
-0.000708906
-0.000721049
-0.000730609
-0.000733676
-0.000725446
-0.000680687
-0.000694589
-0.000708097
-0.000720142
-0.00072964
-0.000732726
-0.000724613
-0.000665262
-0.000673248
-0.000680015
-0.000684624
-0.000685874
-0.000679407
-0.000664105
-0.000664861
-0.000672851
-0.00067959
-0.000684105
-0.000685419
-0.000679361
-0.000663058
-0.000664295
-0.000672221
-0.000678882
-0.000683294
-0.000684538
-0.000678653
-0.0006625
-0.000663682
-0.000671515
-0.000678079
-0.000682395
-0.000683574
-0.000677787
-0.000661899
-0.000663082
-0.000670821
-0.000677291
-0.000681524
-0.000682658
-0.000676949
-0.000661269
-0.000662535
-0.000670187
-0.000676573
-0.000680738
-0.000681839
-0.00067619
-0.000660673
-0.000662071
-0.000669648
-0.000675966
-0.000680077
-0.000681155
-0.000675552
-0.000660157
-0.000646427
-0.000648478
-0.00064875
-0.000646436
-0.0006406
-0.000627115
-0.000605625
-0.000646157
-0.000648254
-0.000648551
-0.000646207
-0.00064048
-0.000627374
-0.000604676
-0.000645747
-0.00064783
-0.000648107
-0.000645723
-0.000639986
-0.000627044
-0.00060439
-0.000645285
-0.000647324
-0.000647557
-0.000645133
-0.00063938
-0.00062654
-0.00060409
-0.000644825
-0.000646813
-0.000646997
-0.000644538
-0.000638779
-0.000626023
-0.00060375
-0.000644399
-0.000646335
-0.000646474
-0.000643984
-0.000638224
-0.00062554
-0.000603415
-0.000644034
-0.000645923
-0.000646023
-0.000643507
-0.00063775
-0.000625123
-0.000603114
-0.000628945
-0.000625829
-0.000620637
-0.000612694
-0.000601172
-0.00058198
-0.000555349
-0.000628759
-0.000625703
-0.000620552
-0.000612596
-0.000601214
-0.000582365
-0.000554345
-0.000628456
-0.000625412
-0.000620268
-0.000612298
-0.000600927
-0.000582231
-0.000554172
-0.000628105
-0.000625045
-0.000619887
-0.000611904
-0.000600538
-0.000581929
-0.000554017
-0.000627749
-0.000624666
-0.000619486
-0.000611492
-0.000600138
-0.0005816
-0.000553813
-0.000627416
-0.000624305
-0.000619103
-0.000611099
-0.000599757
-0.000581283
-0.000553606
-0.000627127
-0.000623989
-0.000618767
-0.000610754
-0.000599424
-0.000581002
-0.000553417
-0.000331397
-0.000381737
-0.000432162
-0.000472622
-0.000506413
-0.000535518
-0.000561049
-0.000332617
-0.000382883
-0.000433144
-0.000473409
-0.000507014
-0.00053595
-0.000561329
-0.000333207
-0.000383444
-0.000433629
-0.000473801
-0.000507316
-0.000536169
-0.000561473
-0.000333207
-0.000383444
-0.000433629
-0.000473801
-0.000507316
-0.00053617
-0.000561473
-0.000332617
-0.000382883
-0.000433144
-0.000473409
-0.000507014
-0.00053595
-0.00056133
-0.000331397
-0.000381737
-0.000432162
-0.000472622
-0.000506414
-0.000535518
-0.00056105
-0.000417736
-0.00044582
-0.000477921
-0.000506347
-0.000531381
-0.000553794
-0.000574043
-0.000418557
-0.000446628
-0.000478632
-0.000506924
-0.000531821
-0.000554107
-0.000574241
-0.00041896
-0.000447026
-0.000478987
-0.000507215
-0.000532045
-0.000554268
-0.000574343
-0.00041896
-0.000447026
-0.000478987
-0.000507215
-0.000532045
-0.000554268
-0.000574344
-0.000418558
-0.000446628
-0.000478633
-0.000506925
-0.000531822
-0.000554107
-0.000574241
-0.000417736
-0.000445821
-0.000477921
-0.000506348
-0.000531381
-0.000553795
-0.000574044
-0.000496511
-0.000506797
-0.000523573
-0.000540958
-0.000557444
-0.000573073
-0.000587781
-0.000497018
-0.000507333
-0.000524065
-0.000541361
-0.000557751
-0.000573287
-0.00058791
-0.000497271
-0.0005076
-0.000524312
-0.000541566
-0.000557909
-0.000573399
-0.000587978
-0.000497271
-0.0005076
-0.000524312
-0.000541566
-0.000557909
-0.000573399
-0.000587979
-0.000497019
-0.000507333
-0.000524065
-0.000541362
-0.000557752
-0.000573288
-0.000587911
-0.000496512
-0.000506798
-0.000523574
-0.000540959
-0.000557446
-0.000573074
-0.000587782
-0.000565713
-0.000562818
-0.000567451
-0.000575237
-0.000583836
-0.000592901
-0.000602032
-0.000565986
-0.000563154
-0.000567776
-0.000575502
-0.000584034
-0.000593034
-0.000602103
-0.000566128
-0.000563321
-0.000567938
-0.000575637
-0.000584137
-0.000593104
-0.000602143
-0.000566128
-0.000563321
-0.000567939
-0.000575637
-0.000584137
-0.000593104
-0.000602143
-0.000565987
-0.000563155
-0.000567777
-0.000575503
-0.000584035
-0.000593034
-0.000602104
-0.000565715
-0.000562819
-0.000567453
-0.000575239
-0.000583838
-0.000592902
-0.000602033
-0.000625616
-0.000612922
-0.000608157
-0.000607915
-0.000609518
-0.000612502
-0.000616277
-0.000625724
-0.000613113
-0.000608354
-0.00060807
-0.000609629
-0.000612569
-0.000616303
-0.000625785
-0.000613207
-0.000608451
-0.00060815
-0.000609688
-0.000612606
-0.000616318
-0.000625785
-0.000613207
-0.000608451
-0.000608151
-0.000609688
-0.000612606
-0.000616319
-0.000625725
-0.000613114
-0.000608356
-0.000608071
-0.00060963
-0.00061257
-0.000616304
-0.000625618
-0.000612924
-0.000608158
-0.000607916
-0.00060952
-0.000612503
-0.000616279
-0.00067727
-0.000656893
-0.000644656
-0.000637959
-0.000633644
-0.0006312
-0.000630024
-0.000677269
-0.000656963
-0.000644745
-0.000638029
-0.000633688
-0.000631217
-0.000630015
-0.000677275
-0.000656998
-0.000644789
-0.000638066
-0.000633713
-0.000631229
-0.000630012
-0.000677276
-0.000656998
-0.00064479
-0.000638067
-0.000633714
-0.000631229
-0.000630013