/*--------------------------------*- C++ -*----------------------------------*\
  =========                 |
  \\      /  F ield         | OpenFOAM: The Open Source CFD Toolbox
   \\    /   O peration     | Website:  https://openfoam.org
    \\  /    A nd           | Version:  7
     \\/     M anipulation  |
\*---------------------------------------------------------------------------*/
FoamFile
{
    version     2.0;
    format      ascii;
    class       volVectorField;
    location    "4.5";
    object      U;
}
// * * * * * * * * * * * * * * * * * * * * * * * * * * * * * * * * * * * * * //

dimensions      [0 1 -1 0 0 0 0];

internalField   nonuniform List<vector> 
7784
(
(1.17945 -2.33205e-05 -2.44804e-05)
(1.17948 -1.99158e-05 -1.90157e-05)
(1.17951 -1.52732e-05 -1.092e-05)
(1.17953 -1.10374e-05 -3.86357e-06)
(1.17953 -7.766e-06 2.00987e-07)
(1.17953 -5.41135e-06 1.6857e-06)
(1.17953 -3.76452e-06 1.75922e-06)
(1.17946 -1.5501e-05 -2.00112e-05)
(1.17949 -1.31784e-05 -1.56229e-05)
(1.17951 -1.04937e-05 -9.01264e-06)
(1.17953 -8.16842e-06 -3.01999e-06)
(1.17953 -6.2439e-06 5.02095e-07)
(1.17953 -4.68298e-06 1.75846e-06)
(1.17953 -3.46538e-06 1.74231e-06)
(1.17946 -8.40385e-06 -1.6644e-05)
(1.17949 -7.83332e-06 -1.2972e-05)
(1.17952 -7.01177e-06 -7.39915e-06)
(1.17953 -6.03203e-06 -2.24094e-06)
(1.17953 -4.98079e-06 8.08763e-07)
(1.17953 -3.97337e-06 1.84772e-06)
(1.17953 -3.08515e-06 1.73514e-06)
(1.17946 -5.53287e-06 -1.49672e-05)
(1.17949 -5.47472e-06 -1.16071e-05)
(1.17952 -5.20599e-06 -6.51968e-06)
(1.17953 -4.69803e-06 -1.7898e-06)
(1.17953 -4.04066e-06 9.99396e-07)
(1.17953 -3.34888e-06 1.91624e-06)
(1.17953 -2.68508e-06 1.73465e-06)
(1.17947 -4.28408e-06 -1.43293e-05)
(1.1795 -4.26001e-06 -1.1077e-05)
(1.17952 -4.08328e-06 -6.16887e-06)
(1.17953 -3.73385e-06 -1.60919e-06)
(1.17953 -3.27247e-06 1.0725e-06)
(1.17953 -2.77281e-06 1.93944e-06)
(1.17953 -2.27407e-06 1.72686e-06)
(1.17947 -3.42765e-06 -1.41621e-05)
(1.1795 -3.37943e-06 -1.09369e-05)
(1.17952 -3.2187e-06 -6.07773e-06)
(1.17953 -2.94571e-06 -1.56814e-06)
(1.17954 -2.60089e-06 1.08258e-06)
(1.17954 -2.22806e-06 1.93811e-06)
(1.17953 -1.85547e-06 1.71577e-06)
(1.17947 -2.67048e-06 -1.4157e-05)
(1.1795 -2.61092e-06 -1.09325e-05)
(1.17952 -2.46464e-06 -6.07791e-06)
(1.17953 -2.2464e-06 -1.57556e-06)
(1.17954 -1.98567e-06 1.07116e-06)
(1.17954 -1.70806e-06 1.92435e-06)
(1.17953 -1.43687e-06 1.70463e-06)
(0.631964 -5.43781e-05 -7.83369e-05)
(0.632012 -4.74423e-05 -6.56623e-05)
(0.63206 -3.71074e-05 -4.48241e-05)
(0.632095 -2.69438e-05 -2.48735e-05)
(0.632118 -1.88409e-05 -1.1656e-05)
(0.632132 -1.29957e-05 -4.90945e-06)
(0.632143 -8.93926e-06 -2.16475e-06)
(0.631976 -4.40529e-05 -6.87171e-05)
(0.632022 -3.87616e-05 -5.86172e-05)
(0.632067 -3.11706e-05 -4.08814e-05)
(0.632099 -2.35949e-05 -2.303e-05)
(0.63212 -1.72556e-05 -1.08774e-05)
(0.632134 -1.24055e-05 -4.60869e-06)
(0.632144 -8.85798e-06 -2.07379e-06)
(0.631989 -3.22736e-05 -6.03603e-05)
(0.632034 -2.95556e-05 -5.20352e-05)
(0.632075 -2.49576e-05 -3.67218e-05)
(0.632105 -1.98238e-05 -2.07988e-05)
(0.632124 -1.51432e-05 -9.7868e-06)
(0.632137 -1.13087e-05 -4.10133e-06)
(0.632146 -8.35055e-06 -1.85368e-06)
(0.631998 -2.41432e-05 -5.52941e-05)
(0.632042 -2.26293e-05 -4.78083e-05)
(0.632082 -1.97148e-05 -3.38104e-05)
(0.63211 -1.62038e-05 -1.9077e-05)
(0.632128 -1.28068e-05 -8.85086e-06)
(0.63214 -9.87047e-06 -3.60565e-06)
(0.632148 -7.49546e-06 -1.60097e-06)
(0.632004 -1.83553e-05 -5.27007e-05)
(0.632047 -1.73387e-05 -4.55608e-05)
(0.632087 -1.53592e-05 -3.21653e-05)
(0.632114 -1.29227e-05 -1.80288e-05)
(0.632132 -1.04867e-05 -8.23006e-06)
(0.632143 -8.29512e-06 -3.2442e-06)
(0.63215 -6.44496e-06 -1.3932e-06)
(0.632008 -1.38316e-05 -5.15077e-05)
(0.632051 -1.3105e-05 -4.44917e-05)
(0.63209 -1.17278e-05 -3.13354e-05)
(0.632117 -1.00304e-05 -1.74576e-05)
(0.632134 -8.29949e-06 -7.85922e-06)
(0.632145 -6.69715e-06 -3.00561e-06)
(0.632152 -5.29558e-06 -1.24071e-06)
(0.632011 -1.01268e-05 -5.0979e-05)
(0.632053 -9.60953e-06 -4.39976e-05)
(0.632092 -8.65354e-06 -3.0925e-05)
(0.632119 -7.48119e-06 -1.71507e-05)
(0.632136 -6.27328e-06 -7.6414e-06)
(0.632146 -5.13521e-06 -2.85514e-06)
(0.632153 -4.11245e-06 -1.13417e-06)
(0.281359 -5.75209e-05 -0.000127916)
(0.281396 -5.07534e-05 -0.000115083)
(0.281433 -4.03802e-05 -8.91426e-05)
(0.281465 -2.98466e-05 -6.04036e-05)
(0.281492 -2.1224e-05 -3.80252e-05)
(0.281513 -1.48521e-05 -2.36508e-05)
(0.281529 -1.03192e-05 -1.5234e-05)
(0.281369 -5.0681e-05 -0.000118384)
(0.281405 -4.50829e-05 -0.000107997)
(0.28144 -3.66259e-05 -8.47512e-05)
(0.28147 -2.78959e-05 -5.79346e-05)
(0.281495 -2.04861e-05 -3.66825e-05)
(0.281515 -1.4774e-05 -2.29253e-05)
(0.28153 -1.05507e-05 -1.48395e-05)
(0.281381 -4.1245e-05 -0.000108328)
(0.281416 -3.75294e-05 -9.97744e-05)
(0.281449 -3.14018e-05 -7.90542e-05)
(0.281477 -2.47219e-05 -5.44122e-05)
(0.2815 -1.8753e-05 -3.4626e-05)
(0.281519 -1.39253e-05 -2.17465e-05)
(0.281533 -1.02014e-05 -1.41573e-05)
(0.281391 -3.27637e-05 -0.000100894)
(0.281424 -3.02322e-05 -9.33576e-05)
(0.281456 -2.58647e-05 -7.42996e-05)
(0.281483 -2.09289e-05 -5.127e-05)
(0.281505 -1.63343e-05 -3.26749e-05)
(0.281523 -1.24565e-05 -2.0564e-05)
(0.281536 -9.33927e-06 -1.34321e-05)
(0.281397 -2.55555e-05 -9.62213e-05)
(0.281431 -2.37517e-05 -8.92082e-05)
(0.281462 -2.0641e-05 -7.10817e-05)
(0.281488 -1.70706e-05 -4.90207e-05)
(0.28151 -1.36472e-05 -3.119e-05)
(0.281526 -1.06514e-05 -1.96073e-05)
(0.281539 -8.15071e-06 -1.28116e-05)
(0.281402 -1.94481e-05 -9.35225e-05)
(0.281435 -1.81591e-05 -8.67596e-05)
(0.281466 -1.59639e-05 -6.91027e-05)
(0.281492 -1.34262e-05 -4.75593e-05)
(0.281513 -1.09389e-05 -3.01644e-05)
(0.281529 -8.69817e-06 -1.89058e-05)
(0.281541 -6.76816e-06 -1.23317e-05)
(0.281405 -1.42629e-05 -9.19984e-05)
(0.281438 -1.33611e-05 -8.5348e-05)
(0.281469 -1.18427e-05 -6.79177e-05)
(0.281495 -1.00818e-05 -4.66397e-05)
(0.281515 -8.32921e-06 -2.94833e-05)
(0.281531 -6.7165e-06 -1.84134e-05)
(0.281542 -5.29348e-06 -1.19804e-05)
(1.17953 -2.62867e-06 1.2886e-06)
(1.17953 -1.827e-06 7.3978e-07)
(1.17953 -1.2364e-06 2.51047e-07)
(1.17953 -7.78844e-07 -1.87035e-07)
(1.17953 -4.03924e-07 -6.4027e-07)
(1.17954 -7.09295e-08 -1.19805e-06)
(1.17953 -2.55861e-06 1.25041e-06)
(1.17953 -1.87333e-06 7.05527e-07)
(1.17953 -1.33925e-06 2.28123e-07)
(1.17953 -9.14497e-07 -1.9826e-07)
(1.17953 -5.71371e-07 -6.39829e-07)
(1.17954 -2.87624e-07 -1.17878e-06)
(1.17953 -2.37229e-06 1.22261e-06)
(1.17953 -1.79954e-06 6.84355e-07)
(1.17953 -1.33135e-06 2.15747e-07)
(1.17953 -9.49956e-07 -2.02491e-07)
(1.17953 -6.40457e-07 -6.36085e-07)
(1.17954 -3.9076e-07 -1.16628e-06)
(1.17953 -2.1206e-06 1.20896e-06)
(1.17953 -1.64659e-06 6.77085e-07)
(1.17953 -1.24738e-06 2.13683e-07)
(1.17953 -9.16426e-07 -2.00477e-07)
(1.17953 -6.45671e-07 -6.29832e-07)
(1.17954 -4.27857e-07 -1.15519e-06)
(1.17953 -1.831e-06 1.19911e-06)
(1.17953 -1.44643e-06 6.74004e-07)
(1.17953 -1.11556e-06 2.14712e-07)
(1.17953 -8.36924e-07 -1.96681e-07)
(1.17953 -6.06082e-07 -6.23154e-07)
(1.17954 -4.18156e-07 -1.14478e-06)
(1.17953 -1.51484e-06 1.19137e-06)
(1.17953 -1.21233e-06 6.72595e-07)
(1.17953 -9.47633e-07 2.16586e-07)
(1.17953 -7.21563e-07 -1.92715e-07)
(1.17954 -5.31543e-07 -6.17052e-07)
(1.17954 -3.73877e-07 -1.13584e-06)
(1.17953 -1.18452e-06 1.18575e-06)
(1.17953 -9.56814e-07 6.72308e-07)
(1.17953 -7.55352e-07 2.18642e-07)
(1.17953 -5.81101e-07 -1.89174e-07)
(1.17954 -4.32597e-07 -6.1197e-07)
(1.17954 -3.06977e-07 -1.12868e-06)
(0.63215 -6.13206e-06 -1.356e-06)
(0.632155 -4.14158e-06 -1.30386e-06)
(0.632158 -2.66152e-06 -1.53195e-06)
(0.632161 -1.48818e-06 -1.92403e-06)
(0.632163 -4.74053e-07 -2.51465e-06)
(0.632165 5.17015e-07 -3.38695e-06)
(0.632151 -6.28266e-06 -1.3422e-06)
(0.632155 -4.38064e-06 -1.311e-06)
(0.632159 -2.925e-06 -1.53906e-06)
(0.632161 -1.75593e-06 -1.92494e-06)
(0.632163 -7.54693e-07 -2.50856e-06)
(0.632165 1.87586e-07 -3.35863e-06)
(0.632152 -6.08941e-06 -1.24251e-06)
(0.632156 -4.3493e-06 -1.25799e-06)
(0.63216 -2.9815e-06 -1.50621e-06)
(0.632162 -1.86607e-06 -1.90038e-06)
(0.632164 -9.09619e-07 -2.48639e-06)
(0.632165 -3.24421e-08 -3.33707e-06)
(0.632154 -5.5947e-06 -1.10289e-06)
(0.632158 -4.07758e-06 -1.17101e-06)
(0.632161 -2.85337e-06 -1.44923e-06)
(0.632163 -1.83807e-06 -1.86138e-06)
(0.632165 -9.61637e-07 -2.45836e-06)
(0.632166 -1.63135e-07 -3.31779e-06)
(0.632155 -4.90643e-06 -9.742e-07)
(0.632159 -3.63896e-06 -1.08461e-06)
(0.632162 -2.5904e-06 -1.39016e-06)
(0.632164 -1.70538e-06 -1.8205e-06)
(0.632165 -9.33906e-07 -2.4298e-06)
(0.632167 -2.30102e-07 -3.29889e-06)
(0.632157 -4.0955e-06 -8.70889e-07)
(0.63216 -3.08095e-06 -1.01099e-06)
(0.632163 -2.22354e-06 -1.33784e-06)
(0.632165 -1.48805e-06 -1.78341e-06)
(0.632166 -8.40136e-07 -2.4036e-06)
(0.632167 -2.46348e-07 -3.28129e-06)
(0.632158 -3.21848e-06 -7.93116e-07)
(0.632161 -2.44785e-06 -9.52842e-07)
(0.632163 -1.78518e-06 -1.29529e-06)
(0.632165 -1.20912e-06 -1.75258e-06)
(0.632167 -6.96797e-07 -2.38149e-06)
(0.632168 -2.24763e-07 -3.26602e-06)
(0.28154 -7.0997e-06 -1.03737e-05)
(0.281548 -4.75361e-06 -7.43974e-06)
(0.281553 -2.95912e-06 -5.54636e-06)
(0.281556 -1.4889e-06 -4.26401e-06)
(0.281557 -1.67251e-07 -3.36768e-06)
(0.281556 1.1891e-06 -2.64585e-06)
(0.281541 -7.44489e-06 -1.01537e-05)
(0.281549 -5.11398e-06 -7.31194e-06)
(0.281554 -3.29392e-06 -5.47028e-06)
(0.281557 -1.79072e-06 -4.21908e-06)
(0.281558 -4.5101e-07 -3.34535e-06)
(0.281556 8.85047e-07 -2.64046e-06)
(0.281543 -7.35566e-06 -9.75218e-06)
(0.28155 -5.15287e-06 -7.07108e-06)
(0.281555 -3.39598e-06 -5.32493e-06)
(0.281558 -1.92735e-06 -4.1352e-06)
(0.281558 -6.16751e-07 -3.30687e-06)
(0.281557 6.54965e-07 -2.65018e-06)
(0.281546 -6.86685e-06 -9.30371e-06)
(0.281552 -4.89416e-06 -6.79221e-06)
(0.281557 -3.28554e-06 -5.15294e-06)
(0.281559 -1.92245e-06 -4.036e-06)
(0.281559 -7.01861e-07 -3.2646e-06)
(0.281558 4.7113e-07 -2.66597e-06)
(0.281548 -6.09883e-06 -8.90115e-06)
(0.281554 -4.41456e-06 -6.53177e-06)
(0.281558 -3.01078e-06 -4.98736e-06)
(0.28156 -1.80401e-06 -3.93808e-06)
(0.281561 -7.17463e-07 -3.22091e-06)
(0.281559 3.2167e-07 -2.67538e-06)
(0.281549 -5.13896e-06 -8.57531e-06)
(0.281555 -3.76849e-06 -6.31285e-06)
(0.281559 -2.60385e-06 -4.8438e-06)
(0.281561 -1.58908e-06 -3.85059e-06)
(0.281562 -6.69621e-07 -3.17918e-06)
(0.28156 2.07958e-07 -2.67714e-06)
(0.281551 -4.06542e-06 -8.32774e-06)
(0.281557 -3.01203e-06 -6.14123e-06)
(0.28156 -2.10251e-06 -4.7282e-06)
(0.281562 -1.30094e-06 -3.7782e-06)
(0.281562 -5.70315e-07 -3.14266e-06)
(0.281561 1.26767e-07 -2.67424e-06)
(1.17954 2.69566e-07 -1.91508e-06)
(1.17954 6.49166e-07 -2.78793e-06)
(1.17955 1.13761e-06 -3.46896e-06)
(1.17955 1.92209e-06 -2.58807e-06)
(1.17955 3.64687e-06 3.16269e-06)
(1.17952 7.45353e-06 1.79652e-05)
(1.17949 1.2029e-05 4.13418e-05)
(1.17954 -3.58542e-08 -1.88807e-06)
(1.17954 1.91922e-07 -2.75916e-06)
(1.17955 4.21865e-07 -3.46211e-06)
(1.17955 7.53752e-07 -2.71134e-06)
(1.17955 1.68982e-06 2.6176e-06)
(1.17952 4.33775e-06 1.64591e-05)
(1.1795 7.88126e-06 3.86596e-05)
(1.17954 -1.94405e-07 -1.86819e-06)
(1.17954 -4.65159e-08 -2.7378e-06)
(1.17955 6.63695e-08 -3.46092e-06)
(1.17955 1.91851e-07 -2.81877e-06)
(1.17955 5.7516e-07 2.15254e-06)
(1.17952 1.67526e-06 1.53188e-05)
(1.1795 3.21109e-06 3.67931e-05)
(1.17954 -2.59199e-07 -1.85246e-06)
(1.17954 -1.37665e-07 -2.71767e-06)
(1.17955 -5.06148e-08 -3.44778e-06)
(1.17955 3.39787e-08 -2.86025e-06)
(1.17955 2.48714e-07 1.92218e-06)
(1.17952 8.02994e-07 1.47486e-05)
(1.1795 1.56097e-06 3.58748e-05)
(1.17954 -2.69391e-07 -1.83733e-06)
(1.17954 -1.55187e-07 -2.69706e-06)
(1.17955 -6.37759e-08 -3.42506e-06)
(1.17955 3.12726e-08 -2.85624e-06)
(1.17955 2.09002e-07 1.84932e-06)
(1.17952 5.738e-07 1.45382e-05)
(1.1795 1.03196e-06 3.55281e-05)
(1.17954 -2.44514e-07 -1.8244e-06)
(1.17954 -1.37696e-07 -2.67882e-06)
(1.17955 -4.20633e-08 -3.40166e-06)
(1.17955 6.32518e-08 -2.83563e-06)
(1.17955 2.24438e-07 1.84523e-06)
(1.17952 4.91072e-07 1.44889e-05)
(1.1795 7.93636e-07 3.54369e-05)
(1.17954 -2.00436e-07 -1.81423e-06)
(1.17954 -1.07243e-07 -2.66455e-06)
(1.17955 -1.7705e-08 -3.38264e-06)
(1.17955 8.35296e-08 -2.8145e-06)
(1.17955 2.23119e-07 1.86104e-06)
(1.17952 4.22623e-07 1.44937e-05)
(1.1795 6.29902e-07 3.54338e-05)
(0.632166 1.60779e-06 -4.46734e-06)
(0.632166 2.96959e-06 -5.26251e-06)
(0.632164 4.88316e-06 -3.99034e-06)
(0.632157 7.88868e-06 3.78849e-06)
(0.632137 1.3097e-05 2.5598e-05)
(0.632098 2.13132e-05 6.71616e-05)
(0.632069 2.90685e-05 0.000119074)
(0.632166 1.16387e-06 -4.44002e-06)
(0.632166 2.30144e-06 -5.26559e-06)
(0.632164 3.80518e-06 -4.11721e-06)
(0.632157 6.05735e-06 3.24652e-06)
(0.632139 9.93894e-06 2.39336e-05)
(0.6321 1.63818e-05 6.31528e-05)
(0.632071 2.27783e-05 0.000112412)
(0.632166 8.38369e-07 -4.42953e-06)
(0.632166 1.7995e-06 -5.30196e-06)
(0.632164 2.99885e-06 -4.30971e-06)
(0.632158 4.68082e-06 2.60716e-06)
(0.63214 7.30073e-06 2.22387e-05)
(0.632102 1.12378e-05 5.9682e-05)
(0.632072 1.50194e-05 0.000107208)
(0.632167 6.14764e-07 -4.42672e-06)
(0.632167 1.44426e-06 -5.33824e-06)
(0.632165 2.43109e-06 -4.46202e-06)
(0.632159 3.7293e-06 2.15513e-06)
(0.632141 5.57815e-06 2.11341e-05)
(0.632103 8.09793e-06 5.75808e-05)
(0.632074 1.04001e-05 0.000104214)
(0.632168 4.50908e-07 -4.42045e-06)
(0.632168 1.16284e-06 -5.35731e-06)
(0.632166 1.97978e-06 -4.54849e-06)
(0.632159 2.99859e-06 1.90754e-06)
(0.632142 4.34964e-06 2.05543e-05)
(0.632105 6.05296e-06 5.65216e-05)
(0.632075 7.54277e-06 0.00010275)
(0.632168 3.27532e-07 -4.4118e-06)
(0.632168 9.20767e-07 -5.36344e-06)
(0.632167 1.58418e-06 -4.58941e-06)
(0.63216 2.37744e-06 1.78966e-06)
(0.632143 3.36781e-06 2.02858e-05)
(0.632106 4.536e-06 5.60482e-05)
(0.632077 5.51841e-06 0.000102115)
(0.632169 2.31809e-07 -4.40294e-06)
(0.632169 7.00805e-07 -5.36348e-06)
(0.632167 1.21605e-06 -4.60723e-06)
(0.632161 1.81354e-06 1.73667e-06)
(0.632144 2.52613e-06 2.01682e-05)
(0.632107 3.32397e-06 5.58495e-05)
(0.632078 3.97266e-06 0.000101859)
(0.281552 2.73181e-06 -1.60559e-06)
(0.281545 4.69665e-06 9.98591e-07)
(0.281534 7.42708e-06 8.16531e-06)
(0.281515 1.14519e-05 2.54984e-05)
(0.281488 1.74841e-05 5.97251e-05)
(0.281454 2.52838e-05 0.000111661)
(0.281435 3.13773e-05 0.000164313)
(0.281553 2.34375e-06 -1.64204e-06)
(0.281546 4.11972e-06 8.69761e-07)
(0.281534 6.48466e-06 7.8107e-06)
(0.281516 9.84303e-06 2.4602e-05)
(0.28149 1.4791e-05 5.75957e-05)
(0.281456 2.13361e-05 0.000107169)
(0.281436 2.66568e-05 0.000157296)
(0.281553 2.00373e-06 -1.72238e-06)
(0.281547 3.58372e-06 6.47967e-07)
(0.281535 5.59495e-06 7.27149e-06)
(0.281518 8.31382e-06 2.3374e-05)
(0.281492 1.20571e-05 5.50489e-05)
(0.281458 1.67125e-05 0.000102604)
(0.281438 2.04731e-05 0.000150881)
(0.281555 1.68967e-06 -1.81404e-06)
(0.281548 3.07121e-06 4.20497e-07)
(0.281537 4.75677e-06 6.76792e-06)
(0.28152 6.92607e-06 2.23244e-05)
(0.281494 9.73366e-06 5.30461e-05)
(0.281461 1.30223e-05 9.92985e-05)
(0.281441 1.56189e-05 0.000146498)
(0.281556 1.38649e-06 -1.8888e-06)
(0.281549 2.56153e-06 2.41169e-07)
(0.281538 3.94285e-06 6.3959e-06)
(0.281521 5.64184e-06 2.16021e-05)
(0.281496 7.7277e-06 5.175e-05)
(0.281463 1.00521e-05 9.72654e-05)
(0.281443 1.18436e-05 0.000143888)
(0.281557 1.09833e-06 -1.94146e-06)
(0.28155 2.06046e-06 1.1525e-07)
(0.281539 3.15803e-06 6.1481e-06)
(0.281523 4.4564e-06 2.11509e-05)
(0.281498 5.97907e-06 5.09869e-05)
(0.281465 7.60321e-06 9.61241e-05)
(0.281444 8.8255e-06 0.000142464)
(0.281557 8.28827e-07 -1.97604e-06)
(0.281551 1.57583e-06 3.10631e-08)
(0.28154 2.40862e-06 5.98908e-06)
(0.281524 3.36418e-06 2.08774e-05)
(0.281499 4.44497e-06 5.05498e-05)
(0.281466 5.5577e-06 9.5501e-05)
(0.281446 6.37739e-06 0.00014171)
(1.17947 -1.92204e-06 -1.41878e-05)
(1.1795 -1.86683e-06 -1.09577e-05)
(1.17952 -1.74875e-06 -6.09714e-06)
(1.17953 -1.58667e-06 -1.59122e-06)
(1.17954 -1.40154e-06 1.05813e-06)
(1.17954 -1.20852e-06 1.91179e-06)
(1.17954 -1.02227e-06 1.69639e-06)
(1.17947 -1.15917e-06 -1.42144e-05)
(1.1795 -1.121e-06 -1.09792e-05)
(1.17952 -1.04483e-06 -6.11286e-06)
(1.17953 -9.45031e-07 -1.60282e-06)
(1.17954 -8.34167e-07 1.04932e-06)
(1.17954 -7.20298e-07 1.9038e-06)
(1.17954 -6.11075e-07 1.69142e-06)
(1.17947 -3.86103e-07 -1.42281e-05)
(1.1795 -3.72374e-07 -1.09902e-05)
(1.17952 -3.46076e-07 -6.12072e-06)
(1.17953 -3.12435e-07 -1.60845e-06)
(1.17954 -2.75576e-07 1.04517e-06)
(1.17954 -2.38011e-07 1.9001e-06)
(1.17954 -2.02081e-07 1.68916e-06)
(1.17947 3.89977e-07 -1.42281e-05)
(1.1795 3.76998e-07 -1.09902e-05)
(1.17952 3.51007e-07 -6.12073e-06)
(1.17953 3.17318e-07 -1.60847e-06)
(1.17954 2.80249e-07 1.04516e-06)
(1.17954 2.42396e-07 1.90009e-06)
(1.17954 2.06154e-07 1.68916e-06)
(1.17947 1.1631e-06 -1.42144e-05)
(1.1795 1.12572e-06 -1.09793e-05)
(1.17952 1.04988e-06 -6.1129e-06)
(1.17953 9.50031e-07 -1.60287e-06)
(1.17954 8.38939e-07 1.04928e-06)
(1.17954 7.24758e-07 1.90377e-06)
(1.17954 6.15199e-07 1.6914e-06)
(1.17947 1.92609e-06 -1.41878e-05)
(1.1795 1.87175e-06 -1.09577e-05)
(1.17952 1.75406e-06 -6.09721e-06)
(1.17953 1.59192e-06 -1.5913e-06)
(1.17954 1.40652e-06 1.05806e-06)
(1.17954 1.21313e-06 1.91174e-06)
(1.17954 1.0265e-06 1.69635e-06)
(0.632012 -6.9386e-06 -5.07377e-05)
(0.632054 -6.5882e-06 -4.37608e-05)
(0.632093 -5.95405e-06 -3.07147e-05)
(0.63212 -5.18202e-06 -1.69812e-05)
(0.632137 -4.38304e-06 -7.51194e-06)
(0.632147 -3.62183e-06 -2.76014e-06)
(0.632154 -2.92669e-06 -1.06221e-06)
(0.632013 -4.05413e-06 -5.0624e-05)
(0.632055 -3.84996e-06 -4.36444e-05)
(0.632094 -3.48615e-06 -3.06058e-05)
(0.632121 -3.04601e-06 -1.68886e-05)
(0.632137 -2.58971e-06 -7.43761e-06)
(0.632148 -2.15215e-06 -2.70323e-06)
(0.632155 -1.74891e-06 -1.01744e-06)
(0.632013 -1.33129e-06 -5.05771e-05)
(0.632056 -1.26384e-06 -4.35951e-05)
(0.632094 -1.14506e-06 -3.05582e-05)
(0.632121 -1.00201e-06 -1.6847e-05)
(0.632138 -8.53705e-07 -7.40331e-06)
(0.632148 -7.11095e-07 -2.67637e-06)
(0.632155 -5.79146e-07 -9.95908e-07)
(0.632013 1.3404e-06 -5.05771e-05)
(0.632056 1.27407e-06 -4.35952e-05)
(0.632094 1.15561e-06 -3.05583e-05)
(0.632121 1.0123e-06 -1.68471e-05)
(0.632138 8.63444e-07 -7.40338e-06)
(0.632148 7.20159e-07 -2.67643e-06)
(0.632155 5.87502e-07 -9.95958e-07)
(0.632013 4.06342e-06 -5.06241e-05)
(0.632055 3.86043e-06 -4.36446e-05)
(0.632094 3.49696e-06 -3.0606e-05)
(0.632121 3.05654e-06 -1.68888e-05)
(0.632137 2.59964e-06 -7.43781e-06)
(0.632148 2.16135e-06 -2.70341e-06)
(0.632155 1.75736e-06 -1.01759e-06)
(0.632012 6.94824e-06 -5.07379e-05)
(0.632054 6.59915e-06 -4.37611e-05)
(0.632093 5.96541e-06 -3.07151e-05)
(0.63212 5.19305e-06 -1.69816e-05)
(0.632137 4.39337e-06 -7.5123e-06)
(0.632147 3.63132e-06 -2.76045e-06)
(0.632154 2.93531e-06 -1.06248e-06)
(0.281407 -9.75411e-06 -9.11344e-05)
(0.28144 -9.15694e-06 -8.45344e-05)
(0.281471 -8.161e-06 -6.72141e-05)
(0.281496 -7.00501e-06 -4.60724e-05)
(0.281517 -5.84315e-06 -2.90453e-05)
(0.281532 -4.75822e-06 -1.80838e-05)
(0.281544 -3.78467e-06 -1.17373e-05)
(0.281408 -5.68608e-06 -9.06611e-05)
(0.281441 -5.34461e-06 -8.40836e-05)
(0.281472 -4.77923e-06 -6.68163e-05)
(0.281497 -4.12316e-06 -4.57432e-05)
(0.281518 -3.4599e-06 -2.8784e-05)
(0.281533 -2.83486e-06 -1.78819e-05)
(0.281544 -2.26802e-06 -1.15849e-05)
(0.281408 -1.86506e-06 -9.045e-05)
(0.281442 -1.7536e-06 -8.38814e-05)
(0.281473 -1.57018e-06 -6.66358e-05)
(0.281498 -1.35757e-06 -4.55917e-05)
(0.281518 -1.14212e-06 -2.86618e-05)
(0.281533 -9.3823e-07 -1.7786e-05)
(0.281545 -7.52403e-07 -1.15116e-05)
(0.281408 1.87638e-06 -9.04501e-05)
(0.281442 1.76592e-06 -8.38815e-05)
(0.281473 1.58265e-06 -6.6636e-05)
(0.281498 1.3696e-06 -4.55918e-05)
(0.281518 1.15342e-06 -2.86619e-05)
(0.281533 9.48685e-07 -1.77862e-05)
(0.281545 7.62002e-07 -1.15117e-05)
(0.281408 5.69763e-06 -9.06614e-05)
(0.281441 5.35721e-06 -8.40841e-05)
(0.281472 4.79199e-06 -6.68168e-05)
(0.281497 4.13544e-06 -4.57437e-05)
(0.281517 3.47139e-06 -2.87845e-05)
(0.281533 2.84545e-06 -1.78823e-05)
(0.281544 2.2777e-06 -1.15853e-05)
(0.281407 9.76611e-06 -9.1135e-05)
(0.28144 9.17013e-06 -8.45352e-05)
(0.281471 8.17437e-06 -6.7215e-05)
(0.281496 7.01783e-06 -4.60733e-05)
(0.281517 5.85505e-06 -2.90461e-05)
(0.281532 4.76908e-06 -1.80845e-05)
(0.281544 3.79451e-06 -1.1738e-05)
(1.17953 -8.47981e-07 1.18208e-06)
(1.17953 -6.89446e-07 6.72149e-07)
(1.17953 -5.47892e-07 2.20407e-07)
(1.17953 -4.24335e-07 -1.86383e-07)
(1.17954 -3.17851e-07 -6.0813e-07)
(1.17954 -2.26323e-07 -1.12345e-06)
(1.17953 -5.08769e-07 1.18009e-06)
(1.17953 -4.1556e-07 6.72754e-07)
(1.17953 -3.31354e-07 2.21757e-07)
(1.17953 -2.57568e-07 -1.84473e-07)
(1.17954 -1.93519e-07 -6.05583e-07)
(1.17954 -1.37855e-07 -1.12007e-06)
(1.17953 -1.68437e-07 1.17927e-06)
(1.17953 -1.37773e-07 6.73315e-07)
(1.17953 -1.09901e-07 2.22509e-07)
(1.17953 -8.54256e-08 -1.83504e-07)
(1.17954 -6.41022e-08 -6.0432e-07)
(1.17954 -4.54628e-08 -1.11842e-06)
(1.17953 1.72201e-07 1.17926e-06)
(1.17953 1.41247e-07 6.73305e-07)
(1.17953 1.13109e-07 2.22501e-07)
(1.17953 8.84076e-08 -1.83511e-07)
(1.17954 6.68988e-08 -6.04326e-07)
(1.17954 4.81143e-08 -1.11843e-06)
(1.17953 5.12562e-07 1.18007e-06)
(1.17953 4.19044e-07 6.72726e-07)
(1.17953 3.34566e-07 2.21732e-07)
(1.17953 2.60549e-07 -1.84495e-07)
(1.17954 1.96311e-07 -6.05602e-07)
(1.17954 1.40501e-07 -1.12008e-06)
(1.17953 8.51834e-07 1.18204e-06)
(1.17953 6.92961e-07 6.72109e-07)
(1.17953 5.51112e-07 2.20367e-07)
(1.17953 4.27309e-07 -1.86419e-07)
(1.17954 3.20631e-07 -6.08163e-07)
(1.17954 2.28958e-07 -1.12348e-06)
(0.632159 -2.30992e-06 -7.37967e-07)
(0.632162 -1.77055e-06 -9.10472e-07)
(0.632164 -1.30096e-06 -1.26348e-06)
(0.632166 -8.88517e-07 -1.72915e-06)
(0.632167 -5.18876e-07 -2.3645e-06)
(0.632168 -1.76716e-07 -3.25413e-06)
(0.632159 -1.38767e-06 -7.02631e-07)
(0.632162 -1.06861e-06 -8.82525e-07)
(0.632164 -7.88981e-07 -1.24238e-06)
(0.632166 -5.41503e-07 -1.71348e-06)
(0.632167 -3.18506e-07 -2.35306e-06)
(0.632168 -1.11394e-07 -3.24611e-06)
(0.632159 -4.60393e-07 -6.85371e-07)
(0.632162 -3.55007e-07 -8.68621e-07)
(0.632164 -2.62341e-07 -1.23187e-06)
(0.632166 -1.80012e-07 -1.70566e-06)
(0.632167 -1.05604e-07 -2.34734e-06)
(0.632169 -3.6356e-08 -3.24212e-06)
(0.632159 4.68065e-07 -6.85417e-07)
(0.632162 3.62053e-07 -8.68664e-07)
(0.632164 2.68847e-07 -1.23191e-06)
(0.632166 1.8607e-07 -1.70569e-06)
(0.632167 1.11312e-07 -2.34738e-06)
(0.632169 4.18075e-08 -3.24215e-06)
(0.632159 1.39538e-06 -7.0277e-07)
(0.632162 1.07568e-06 -8.82653e-07)
(0.632164 7.95485e-07 -1.24249e-06)
(0.632166 5.47547e-07 -1.71359e-06)
(0.632167 3.24196e-07 -2.35316e-06)
(0.632168 1.16831e-07 -3.24621e-06)
(0.632159 2.31773e-06 -7.38203e-07)
(0.632162 1.77765e-06 -9.10685e-07)
(0.632164 1.30746e-06 -1.26367e-06)
(0.632166 8.94527e-07 -1.72933e-06)
(0.632167 5.24529e-07 -2.36466e-06)
(0.632168 1.82128e-07 -3.25429e-06)
(0.281552 -2.93084e-06 -8.1514e-06)
(0.281557 -2.18779e-06 -6.01583e-06)
(0.281561 -1.53853e-06 -4.64209e-06)
(0.281563 -9.61293e-07 -3.72316e-06)
(0.281563 -4.3258e-07 -3.11381e-06)
(0.281562 7.1993e-08 -2.66973e-06)
(0.281552 -1.76564e-06 -8.03865e-06)
(0.281558 -1.32425e-06 -5.9345e-06)
(0.281561 -9.35586e-07 -4.5853e-06)
(0.281563 -5.8795e-07 -3.68633e-06)
(0.281563 -2.68447e-07 -3.09402e-06)
(0.281562 3.65866e-08 -2.66574e-06)
(0.281553 -5.86872e-07 -7.98378e-06)
(0.281558 -4.40751e-07 -5.89461e-06)
(0.281562 -3.11592e-07 -4.55718e-06)
(0.281563 -1.95704e-07 -3.66795e-06)
(0.281564 -8.89846e-08 -3.08402e-06)
(0.281562 1.29533e-08 -2.6635e-06)
(0.281553 5.95659e-07 -7.98389e-06)
(0.281558 4.48806e-07 -5.89471e-06)
(0.281562 3.19018e-07 -4.55727e-06)
(0.281563 2.02613e-07 -3.66803e-06)
(0.281564 9.54918e-08 -3.08409e-06)
(0.281562 -6.73505e-09 -2.66358e-06)
(0.281552 1.77447e-06 -8.03897e-06)
(0.281558 1.33232e-06 -5.93479e-06)
(0.281561 9.43001e-07 -4.58557e-06)
(0.281563 5.94838e-07 -3.68658e-06)
(0.281563 2.74933e-07 -3.09426e-06)
(0.281562 -3.03813e-08 -2.66597e-06)
(0.281552 2.93974e-06 -8.15197e-06)
(0.281557 2.19586e-06 -6.01633e-06)
(0.281561 1.54592e-06 -4.64254e-06)
(0.281563 9.68133e-07 -3.72358e-06)
(0.281563 4.39023e-07 -3.11421e-06)
(0.281562 -6.58136e-08 -2.67014e-06)
(1.17954 -1.46706e-07 -1.80696e-06)
(1.17954 -7.43354e-08 -2.65455e-06)
(1.17955 -2.09145e-09 -3.36929e-06)
(1.17955 8.03733e-08 -2.79864e-06)
(1.17955 1.88006e-07 1.87718e-06)
(1.17952 3.29237e-07 1.45093e-05)
(1.1795 4.675e-07 3.54512e-05)
(1.17954 -8.86309e-08 -1.80238e-06)
(1.17954 -4.28784e-08 -2.64837e-06)
(1.17955 3.69147e-09 -3.36116e-06)
(1.17955 5.69526e-08 -2.78881e-06)
(1.17955 1.24431e-07 1.88811e-06)
(1.17952 2.08955e-07 1.45218e-05)
(1.1795 2.88922e-07 3.54667e-05)
(1.17954 -2.88412e-08 -1.80019e-06)
(1.17954 -1.32284e-08 -2.64547e-06)
(1.17955 2.80476e-09 -3.35738e-06)
(1.17955 2.11454e-08 -2.78424e-06)
(1.17955 4.40818e-08 1.89334e-06)
(1.17952 7.22246e-08 1.4528e-05)
(1.1795 9.83889e-08 3.54749e-05)
(1.17954 3.13845e-08 -1.8002e-06)
(1.17954 1.56983e-08 -2.64547e-06)
(1.17955 -3.73864e-10 -3.35739e-06)
(1.17955 -1.87245e-08 -2.78425e-06)
(1.17955 -4.16398e-08 1.89333e-06)
(1.17952 -6.97666e-08 1.4528e-05)
(1.1795 -9.61069e-08 3.54749e-05)
(1.17954 9.1173e-08 -1.80239e-06)
(1.17954 4.53554e-08 -2.64839e-06)
(1.17955 -1.24613e-09 -3.36118e-06)
(1.17955 -5.45054e-08 -2.78884e-06)
(1.17955 -1.21951e-07 1.88807e-06)
(1.17952 -2.06452e-07 1.45217e-05)
(1.1795 -2.866e-07 3.54667e-05)
(1.17954 1.49244e-07 -1.80699e-06)
(1.17954 7.68219e-08 -2.65458e-06)
(1.17955 4.56994e-09 -3.36933e-06)
(1.17955 -7.7866e-08 -2.79868e-06)
(1.17955 -1.85438e-07 1.87712e-06)
(1.17952 -3.26631e-07 1.45093e-05)
(1.1795 -4.6509e-07 3.54511e-05)
(0.632169 1.54649e-07 -4.39561e-06)
(0.632169 4.93774e-07 -5.36183e-06)
(0.632168 8.61877e-07 -4.61515e-06)
(0.632161 1.27982e-06 1.71233e-06)
(0.632144 1.7628e-06 2.01162e-05)
(0.632107 2.28441e-06 5.57664e-05)
(0.632078 2.69835e-06 0.000101759)
(0.632169 8.93738e-08 -4.39058e-06)
(0.632169 2.94403e-07 -5.36032e-06)
(0.632168 5.15308e-07 -4.6189e-06)
(0.632162 7.62776e-07 1.70066e-06)
(0.632145 1.04315e-06 2.00924e-05)
(0.632108 1.33931e-06 5.57309e-05)
(0.632079 1.57085e-06 0.00010172)
(0.632169 3.08242e-08 -4.38808e-06)
(0.63217 9.9379e-08 -5.35952e-06)
(0.632168 1.73014e-07 -4.62054e-06)
(0.632162 2.54976e-07 1.6957e-06)
(0.632145 3.46969e-07 2.00827e-05)
(0.632108 4.43103e-07 5.57174e-05)
(0.632079 5.17615e-07 0.000101706)
(0.632169 -2.55424e-08 -4.38811e-06)
(0.63217 -9.41844e-08 -5.35956e-06)
(0.632168 -1.6783e-07 -4.62058e-06)
(0.632162 -2.49737e-07 1.69565e-06)
(0.632145 -3.41621e-07 2.00827e-05)
(0.632108 -4.37702e-07 5.57173e-05)
(0.632079 -5.12581e-07 0.000101706)
(0.632169 -8.4091e-08 -4.39067e-06)
(0.632169 -2.89185e-07 -5.36042e-06)
(0.632168 -5.10074e-07 -4.61903e-06)
(0.632162 -7.57455e-07 1.70051e-06)
(0.632145 -1.0377e-06 2.00922e-05)
(0.632108 -1.33379e-06 5.57308e-05)
(0.632079 -1.56571e-06 0.000101719)
(0.632169 -1.49364e-07 -4.39578e-06)
(0.632169 -4.88511e-07 -5.36202e-06)
(0.632168 -8.56536e-07 -4.61539e-06)
(0.632161 -1.27432e-06 1.71205e-06)
(0.632144 -1.7571e-06 2.01158e-05)
(0.632107 -2.27862e-06 5.5766e-05)
(0.632078 -2.69298e-06 0.000101759)
(0.281558 5.77655e-07 -1.99777e-06)
(0.281552 1.10984e-06 -2.33369e-08)
(0.281541 1.69336e-06 5.88923e-06)
(0.281525 2.34824e-06 2.07133e-05)
(0.2815 3.06991e-06 5.03e-05)
(0.281467 3.79418e-06 9.51599e-05)
(0.281447 4.3193e-06 0.00014131)
(0.281558 3.41362e-07 -2.0104e-06)
(0.281552 6.59912e-07 -5.59061e-08)
(0.281542 1.00543e-06 5.83044e-06)
(0.281525 1.38764e-06 2.06197e-05)
(0.2815 1.80184e-06 5.01624e-05)
(0.281468 2.21084e-06 9.49783e-05)
(0.281447 2.50438e-06 0.000141101)
(0.281559 1.14689e-07 -2.01625e-06)
(0.281552 2.20701e-07 -7.12188e-08)
(0.281542 3.35092e-07 5.80304e-06)
(0.281525 4.60762e-07 2.05768e-05)
(0.281501 5.95859e-07 5.01008e-05)
(0.281468 7.28188e-07 9.48987e-05)
(0.281447 8.2256e-07 0.000141011)
(0.281559 -1.08655e-07 -2.01633e-06)
(0.281552 -2.14753e-07 -7.13082e-08)
(0.281542 -3.29144e-07 5.80293e-06)
(0.281525 -4.54725e-07 2.05767e-05)
(0.281501 -5.89676e-07 5.01007e-05)
(0.281468 -7.21951e-07 9.48986e-05)
(0.281447 -8.16766e-07 0.000141011)
(0.281558 -3.35322e-07 -2.01065e-06)
(0.281552 -6.53932e-07 -5.61814e-08)
(0.281542 -9.99419e-07 5.83012e-06)
(0.281525 -1.3815e-06 2.06193e-05)
(0.2815 -1.79553e-06 5.0162e-05)
(0.281468 -2.20448e-06 9.49778e-05)
(0.281447 -2.49848e-06 0.000141101)
(0.281558 -5.71604e-07 -1.9982e-06)
(0.281552 -1.10379e-06 -2.38208e-08)
(0.281541 -1.68721e-06 5.88866e-06)
(0.281525 -2.34189e-06 2.07126e-05)
(0.2815 -3.06333e-06 5.02992e-05)
(0.281467 -3.78753e-06 9.51591e-05)
(0.281447 -4.31317e-06 0.000141309)
(1.17947 2.6747e-06 -1.41571e-05)
(1.1795 2.61616e-06 -1.09325e-05)
(1.17952 2.47037e-06 -6.07802e-06)
(1.17953 2.25208e-06 -1.57568e-06)
(1.17954 1.991e-06 1.07105e-06)
(1.17954 1.71293e-06 1.92427e-06)
(1.17953 1.44125e-06 1.70457e-06)
(1.17947 3.43205e-06 -1.41621e-05)
(1.1795 3.38509e-06 -1.09369e-05)
(1.17952 3.22506e-06 -6.07785e-06)
(1.17953 2.95202e-06 -1.56829e-06)
(1.17954 2.60673e-06 1.08242e-06)
(1.17954 2.23328e-06 1.93798e-06)
(1.17953 1.86006e-06 1.71568e-06)
(1.17947 4.28858e-06 -1.43293e-05)
(1.1795 4.26613e-06 -1.1077e-05)
(1.17952 4.09049e-06 -6.16896e-06)
(1.17953 3.74103e-06 -1.60937e-06)
(1.17953 3.27897e-06 1.07229e-06)
(1.17953 2.77843e-06 1.93924e-06)
(1.17953 2.27887e-06 1.72673e-06)
(1.17946 5.53722e-06 -1.49671e-05)
(1.17949 5.48106e-06 -1.16069e-05)
(1.17952 5.21404e-06 -6.51961e-06)
(1.17953 4.70623e-06 -1.78995e-06)
(1.17953 4.04791e-06 9.9915e-07)
(1.17953 3.35491e-06 1.91603e-06)
(1.17953 2.69004e-06 1.7345e-06)
(1.17946 8.40755e-06 -1.66435e-05)
(1.17949 7.83919e-06 -1.29712e-05)
(1.17952 7.02004e-06 -7.39863e-06)
(1.17953 6.04085e-06 -2.24092e-06)
(1.17953 4.98861e-06 8.08522e-07)
(1.17953 3.97969e-06 1.84749e-06)
(1.17953 3.09016e-06 1.73499e-06)
(1.17946 1.5504e-05 -2.00102e-05)
(1.17949 1.31832e-05 -1.56214e-05)
(1.17951 1.05009e-05 -9.01149e-06)
(1.17953 8.17665e-06 -3.01958e-06)
(1.17953 6.25131e-06 5.0197e-07)
(1.17953 4.68894e-06 1.75823e-06)
(1.17953 3.46998e-06 1.74217e-06)
(1.17945 2.33228e-05 -2.44793e-05)
(1.17948 1.99192e-05 -1.90138e-05)