/*--------------------------------*- C++ -*----------------------------------*\
  =========                 |
  \\      /  F ield         | OpenFOAM: The Open Source CFD Toolbox
   \\    /   O peration     | Website:  https://openfoam.org
    \\  /    A nd           | Version:  7
     \\/     M anipulation  |
\*---------------------------------------------------------------------------*/
FoamFile
{
    version     2.0;
    format      ascii;
    class       volScalarField;
    location    "4.75";
    object      p;
}
// * * * * * * * * * * * * * * * * * * * * * * * * * * * * * * * * * * * * * //

dimensions      [0 2 -2 0 0 0 0];

internalField   nonuniform List<scalar> 
7784
(
2.1895e-11
-8.35386e-05
-0.000194893
-0.000289383
-0.000363149
-0.000419845
-0.000463663
-1.41658e-05
-0.000101859
-0.000209224
-0.000298118
-0.000368116
-0.000422593
-0.000465095
-3.71662e-05
-0.000121761
-0.000223121
-0.000306868
-0.00037347
-0.000425746
-0.000466754
-5.50499e-05
-0.000136616
-0.000233871
-0.000314135
-0.000378222
-0.000428793
-0.00046861
-6.78863e-05
-0.000147519
-0.00024214
-0.000320024
-0.000382249
-0.000431511
-0.000470363
-7.69477e-05
-0.000155364
-0.000248273
-0.00032455
-0.00038546
-0.000433761
-0.000471836
-8.31104e-05
-0.000160775
-0.000252615
-0.000327857
-0.000387877
-0.000435462
-0.000472995
-8.18806e-05
-0.000167009
-0.00026259
-0.00033602
-0.000392457
-0.000437514
-0.00047451
-9.28691e-05
-0.000182034
-0.000273831
-0.000342702
-0.000396224
-0.000439536
-0.000475407
-0.000108938
-0.000195506
-0.0002829
-0.000348366
-0.00039977
-0.000441725
-0.000476684
-0.000121324
-0.000205234
-0.000289717
-0.000352993
-0.000402872
-0.000443703
-0.00047784
-0.000130575
-0.000212787
-0.000295338
-0.000357006
-0.000405645
-0.000445494
-0.000478911
-0.000137505
-0.000218627
-0.000299841
-0.000360325
-0.000408003
-0.000447057
-0.000479907
-0.000142463
-0.000222895
-0.000303229
-0.000362899
-0.000409888
-0.000448379
-0.00048076
-0.000167035
-0.000239048
-0.00031448
-0.000372305
-0.000417879
-0.000455218
-0.00048662
-0.000174359
-0.000248757
-0.0003214
-0.000376342
-0.000420103
-0.000456307
-0.000486971
-0.000184866
-0.00025749
-0.000327311
-0.000380091
-0.000422452
-0.000457703
-0.000487688
-0.000193338
-0.000264172
-0.000332052
-0.000383344
-0.000424641
-0.000459103
-0.000488498
-0.000199995
-0.000269632
-0.00033614
-0.000386271
-0.000426664
-0.000460426
-0.000489294
-0.000205177
-0.000274018
-0.00033954
-0.000388783
-0.000428447
-0.000461625
-0.000490045
-0.000208997
-0.00027733
-0.000342184
-0.000390795
-0.000429917
-0.000462646
-0.000490703
-0.000498821
-0.000528461
-0.000554995
-0.000580412
-0.000606409
-0.000634715
-0.000499396
-0.000528523
-0.000554738
-0.000579908
-0.000605637
-0.000633571
-0.000500178
-0.000528768
-0.000554591
-0.000579443
-0.000604854
-0.000632408
-0.000501189
-0.000529148
-0.000554551
-0.000579059
-0.00060413
-0.000631293
-0.000502173
-0.00052956
-0.000554562
-0.000578732
-0.000603474
-0.000630271
-0.000503036
-0.000529952
-0.0005546
-0.000578466
-0.000602914
-0.000629395
-0.00050374
-0.00053029
-0.000554648
-0.00057826
-0.000602463
-0.000628688
-0.000505604
-0.000532883
-0.000558136
-0.000582804
-0.000608305
-0.000636166
-0.000505837
-0.000532723
-0.000557734
-0.000582211
-0.000607491
-0.000635041
-0.000506395
-0.000532783
-0.000557466
-0.000581672
-0.000606669
-0.000633857
-0.000506959
-0.000532961
-0.00055731
-0.00058122
-0.000605913
-0.000632742
-0.000507539
-0.000533177
-0.000557205
-0.000580824
-0.000605224
-0.000631721
-0.000508104
-0.000533407
-0.000557143
-0.000580498
-0.000604633
-0.000630843
-0.000508602
-0.000533621
-0.000557112
-0.000580242
-0.000604157
-0.000630133
-0.000513764
-0.000538139
-0.000561042
-0.000583635
-0.000607082
-0.000632583
-0.000513658
-0.000537765
-0.000560504
-0.000582959
-0.000606232
-0.000631497
-0.000513884
-0.000537645
-0.000560134
-0.000582376
-0.000605422
-0.000630366
-0.000514249
-0.000537677
-0.000559893
-0.00058189
-0.00060468
-0.000629307
-0.000514646
-0.000537759
-0.000559709
-0.000581461
-0.000604
-0.00062834
-0.000515047
-0.000537875
-0.000559579
-0.000581104
-0.00060341
-0.000627505
-0.000515413
-0.000537999
-0.000559494
-0.000580823
-0.000602932
-0.000626827
-0.000667449
-0.000707193
-0.000757238
-0.00081987
-0.000893847
-0.000958961
-0.000922775
-0.000665723
-0.000704791
-0.000753749
-0.000814719
-0.000886928
-0.000955025
-0.000925985
-0.000664042
-0.000702297
-0.000750156
-0.000809575
-0.00087957
-0.000945603
-0.000915757
-0.000662423
-0.000699979
-0.000746847
-0.000804983
-0.000873361
-0.000937762
-0.000906976
-0.000660954
-0.000697932
-0.000744049
-0.000801199
-0.000868446
-0.00093181
-0.000900431
-0.000659706
-0.000696229
-0.000741782
-0.00079825
-0.000864741
-0.000927425
-0.000895637
-0.00065871
-0.000694893
-0.000740045
-0.000796058
-0.000862068
-0.000924329
-0.000892277
-0.000668126
-0.000706185
-0.000751954
-0.000805484
-0.000865042
-0.000918649
-0.000905899
-0.00066657
-0.00070397
-0.00074876
-0.000800718
-0.000858348
-0.000913816
-0.000906672
-0.000664883
-0.000701573
-0.000745415
-0.000796065
-0.000852006
-0.000906115
-0.000898986
-0.000663307
-0.000699388
-0.000742444
-0.000792127
-0.000846913
-0.000900047
-0.000892542
-0.000661883
-0.000697456
-0.000739884
-0.000788809
-0.0008428
-0.000895339
-0.000887609
-0.000660669
-0.000695837
-0.000737787
-0.000786156
-0.000839588
-0.000891698
-0.000883771
-0.000659695
-0.000694556
-0.000736161
-0.000784145
-0.000837203
-0.00088902
-0.000880939
-0.000661494
-0.000695183
-0.000734399
-0.00077845
-0.000825159
-0.000866286
-0.00086757
-0.000660046
-0.000693186
-0.000731624
-0.000774483
-0.000819776
-0.00086163
-0.000865587
-0.00065849
-0.000691046
-0.00072872
-0.000770594
-0.000814646
-0.000855698
-0.000859991
-0.000657045
-0.000689093
-0.000726129
-0.00076727
-0.000810522
-0.000851051
-0.000855402
-0.000655734
-0.000687354
-0.000723867
-0.000764436
-0.000807124
-0.000847329
-0.000851726
-0.000654609
-0.000685885
-0.000721994
-0.000762135
-0.000804415
-0.000844367
-0.000848749
-0.000653702
-0.000684715
-0.000720527
-0.000760368
-0.000802367
-0.000842137
-0.000846483
-8.71237e-05
-0.000164351
-0.000255552
-0.000330152
-0.000389596
-0.000436691
-0.00047385
-8.95344e-05
-0.000166525
-0.00025737
-0.000331599
-0.000390697
-0.000437487
-0.000474413
-9.0666e-05
-0.000167553
-0.000258238
-0.000332297
-0.000391234
-0.000437878
-0.000474692
-9.06647e-05
-0.000167552
-0.000258237
-0.000332296
-0.000391233
-0.000437877
-0.000474691
-8.95307e-05
-0.000166521
-0.000257366
-0.000331596
-0.000390695
-0.000437486
-0.000474412
-8.71172e-05
-0.000164345
-0.000255547
-0.000330148
-0.000389593
-0.000436689
-0.000473848
-0.000145809
-0.000225835
-0.000305623
-0.000364763
-0.000411285
-0.000449384
-0.000481422
-0.000147866
-0.000227672
-0.000307147
-0.00036597
-0.000412205
-0.000450057
-0.000481871
-0.000148844
-0.000228554
-0.000307887
-0.000366562
-0.000412659
-0.000450393
-0.000482097
-0.000148843
-0.000228553
-0.000307886
-0.000366561
-0.000412659
-0.000450393
-0.000482096
-0.000147863
-0.000227669
-0.000307145
-0.000365968
-0.000412203
-0.000450056
-0.00048187
-0.000145804
-0.00022583
-0.000305618
-0.00036476
-0.000411283
-0.000449382
-0.000481421
-0.000211637
-0.000279668
-0.0003441
-0.000392288
-0.000431032
-0.000463438
-0.000491224
-0.000213287
-0.000281155
-0.00034534
-0.000393271
-0.000431777
-0.000463976
-0.000491582
-0.000214079
-0.000281875
-0.000345948
-0.000393757
-0.00043215
-0.000464247
-0.000491764
-0.000214078
-0.000281875
-0.000345948
-0.000393756
-0.000432149
-0.000464247
-0.000491764
-0.000213285
-0.000281152
-0.000345338
-0.000393269
-0.000431776
-0.000463975
-0.000491582
-0.000211633
-0.000279664
-0.000344096
-0.000392285
-0.00043103
-0.000463437
-0.000491223
-0.000504272
-0.000530549
-0.000554693
-0.00057811
-0.000602126
-0.000628159
-0.000504628
-0.000530731
-0.000554727
-0.000578013
-0.000601903
-0.000627808
-0.000504806
-0.000530823
-0.000554745
-0.000577965
-0.000601793
-0.000627633
-0.000504806
-0.000530823
-0.000554745
-0.000577965
-0.000601792
-0.000627633
-0.000504628
-0.00053073
-0.000554727
-0.000578013
-0.000601903
-0.000627807
-0.000504271
-0.000530549
-0.000554692
-0.00057811
-0.000602126
-0.000628158
-0.000508998
-0.000533803
-0.000557099
-0.000580055
-0.0006038
-0.0006296
-0.000509269
-0.000533928
-0.000557095
-0.000579933
-0.000603563
-0.000629247
-0.000509407
-0.000533992
-0.000557095
-0.000579873
-0.000603445
-0.00062907
-0.000509407
-0.000533992
-0.000557095
-0.000579873
-0.000603445
-0.00062907
-0.000509269
-0.000533928
-0.000557095
-0.000579933
-0.000603563
-0.000629246
-0.000508997
-0.000533803
-0.000557099
-0.000580055
-0.000603799
-0.0006296
-0.000515711
-0.00053811
-0.00055944
-0.000580617
-0.000602574
-0.000626316
-0.00051592
-0.000538192
-0.000559409
-0.000580483
-0.000602337
-0.000625976
-0.000516027
-0.000538235
-0.000559395
-0.000580416
-0.000602219
-0.000625806
-0.000516027
-0.000538235
-0.000559395
-0.000580416
-0.000602219
-0.000625806
-0.00051592
-0.000538192
-0.000559409
-0.000580483
-0.000602337
-0.000625976
-0.000515711
-0.00053811
-0.00055944
-0.000580617
-0.000602574
-0.000626315
-0.000657971
-0.000693915
-0.000738798
-0.000794516
-0.000860231
-0.000922243
-0.000890033
-0.000657483
-0.000693277
-0.000737997
-0.000793538
-0.000859083
-0.000920955
-0.000888659
-0.000657241
-0.000692961
-0.000737602
-0.000793062
-0.00085853
-0.00092034
-0.000888006
-0.00065724
-0.000692961
-0.000737602
-0.000793061
-0.000858529
-0.000920338
-0.000888005
-0.000657482
-0.000693276
-0.000737996
-0.000793536
-0.00085908
-0.000920951
-0.000888655
-0.000657969
-0.000693912
-0.000738793
-0.000794512
-0.000860226
-0.000922236
-0.000890027
-0.000658969
-0.000693613
-0.000734982
-0.000782711
-0.000835531
-0.000887163
-0.000878982
-0.000658488
-0.000692995
-0.000734217
-0.000781792
-0.00083447
-0.000885995
-0.000877756
-0.00065825
-0.000692689
-0.00073384
-0.000781343
-0.000833956
-0.000885431
-0.000877166
-0.000658249
-0.000692689
-0.00073384
-0.000781342
-0.000833955
-0.00088543
-0.000877165
-0.000658488
-0.000692994
-0.000734216
-0.00078179
-0.000834468
-0.000885992
-0.000877753
-0.000658967
-0.000693611
-0.000734979
-0.000782707
-0.000835526
-0.000887158
-0.000878976
-0.000653023
-0.000683847
-0.000719454
-0.000759093
-0.000800909
-0.00084056
-0.000844878
-0.000652572
-0.000683276
-0.000718754
-0.000758269
-0.000799975
-0.000839556
-0.000843856
-0.000652347
-0.000682992
-0.000718409
-0.000757864
-0.000799519
-0.000839067
-0.000843359
-0.000652347
-0.000682992
-0.000718408
-0.000757864
-0.000799519
-0.000839066
-0.000843358
-0.000652571
-0.000683275
-0.000718753
-0.000758267
-0.000799973
-0.000839553
-0.000843853
-0.000653021
-0.000683845
-0.000719452
-0.00075909
-0.000800905
-0.000840556
-0.000844873
-8.3101e-05
-0.000160767
-0.000252608
-0.000327851
-0.000387873
-0.000435459
-0.000472993
-7.69351e-05
-0.000155352
-0.000248263
-0.000324542
-0.000385454
-0.000433757
-0.000471834
-6.78702e-05
-0.000147505
-0.000242129
-0.000320015
-0.000382243
-0.000431506
-0.000470361
-5.50297e-05
-0.000136599
-0.000233858
-0.000314126
-0.000378216
-0.00042879
-0.000468609
-3.71429e-05
-0.000121741
-0.000223108
-0.000306859
-0.000373464
-0.000425743
-0.000466755
-1.41394e-05
-0.000101837
-0.000209212
-0.000298111
-0.000368113
-0.000422592
-0.000465097
2.53638e-08
-8.35182e-05
-0.000194884
-0.000289381
-0.000363149
-0.000419849
-0.000463669
-0.000142455
-0.000222887
-0.000303222
-0.000362894
-0.000409885
-0.000448377
-0.000480759
-0.000137493
-0.000218616
-0.000299832
-0.000360319
-0.000407998
-0.000447055
-0.000479906
-0.000130559
-0.000212773
-0.000295328
-0.000356999
-0.000405641
-0.000445492
-0.000478911
-0.000121302
-0.000205216
-0.000289705
-0.000352985
-0.000402868
-0.000443701
-0.00047784
-0.000108909
-0.000195484
-0.000282887
-0.000348358
-0.000399765
-0.000441724
-0.000476686
-9.2836e-05
-0.000182008
-0.000273817
-0.000342696
-0.000396223
-0.000439538
-0.000475411
-8.1847e-05
-0.000166984
-0.00026258
-0.000336019
-0.000392461
-0.000437521
-0.000474519
-0.00020899
-0.000277323
-0.000342179
-0.000390791
-0.000429915
-0.000462645
-0.000490703
-0.000205166
-0.000274009
-0.000339533
-0.000388778
-0.000428444
-0.000461623
-0.000490045
-0.00019998
-0.000269621
-0.000336131
-0.000386266
-0.000426661
-0.000460424
-0.000489294
-0.000193317
-0.000264156
-0.000332042
-0.000383338
-0.000424638
-0.000459103
-0.000488499
-0.000184838
-0.00025747
-0.000327299
-0.000380084
-0.00042245
-0.000457704
-0.000487691
-0.000174324
-0.000248734
-0.000321389
-0.000376338
-0.000420103
-0.000456311
-0.000486977
-0.000167001
-0.000239026
-0.000314474
-0.000372306
-0.000417884
-0.000455226
-0.00048663
-0.000503739
-0.00053029
-0.000554648
-0.00057826
-0.000602462
-0.000628686
-0.000503035
-0.000529952
-0.000554601
-0.000578466
-0.000602913
-0.000629393
-0.000502173
-0.00052956
-0.000554563
-0.000578733
-0.000603474
-0.00063027
-0.000501189
-0.00052915
-0.000554553
-0.000579061
-0.000604131
-0.000631292
-0.000500181
-0.000528772
-0.000554594
-0.000579446
-0.000604856
-0.000632407
-0.000499401
-0.000528528
-0.000554743
-0.000579913
-0.00060564
-0.000633572
-0.000498829
-0.000528469
-0.000555003
-0.000580418
-0.000606414
-0.000634717
-0.000508602
-0.000533622
-0.000557112
-0.000580242
-0.000604156
-0.000630132
-0.000508104
-0.000533407
-0.000557144
-0.000580498
-0.000604633
-0.000630842
-0.00050754
-0.000533179
-0.000557207
-0.000580826
-0.000605225
-0.00063172
-0.000506961
-0.000532963
-0.000557313
-0.000581222
-0.000605914
-0.000632741
-0.000506398
-0.000532787
-0.00055747
-0.000581675
-0.000606672
-0.000633857
-0.000505842
-0.00053273
-0.00055774
-0.000582216
-0.000607495
-0.000635043
-0.000505613
-0.000532892
-0.000558145
-0.000582812
-0.000608311
-0.000636171
-0.000515413
-0.000537999
-0.000559494
-0.000580824
-0.000602932
-0.000626826
-0.000515047
-0.000537876
-0.000559581
-0.000581105
-0.00060341
-0.000627504
-0.000514647
-0.000537761
-0.000559711
-0.000581463
-0.000604
-0.00062834
-0.000514252
-0.00053768
-0.000559896
-0.000581892
-0.000604682
-0.000629307
-0.000513887
-0.00053765
-0.000560139
-0.00058238
-0.000605425
-0.000630367
-0.000513665
-0.000537772
-0.000560511
-0.000582965
-0.000606238
-0.0006315
-0.000513774
-0.00053815
-0.000561052
-0.000583644
-0.000607091
-0.00063259
-0.000658708
-0.00069489
-0.000740041
-0.000796051
-0.00086206
-0.00092432
-0.000892267
-0.000659704
-0.000696225
-0.000741776
-0.000798241
-0.000864731
-0.000927412
-0.000895623
-0.000660951
-0.000697927
-0.000744041
-0.000801188
-0.000868433
-0.000931794
-0.000900413
-0.000662419
-0.000699973
-0.000746838
-0.00080497
-0.000873343
-0.000937741
-0.000906952
-0.000664039
-0.00070229
-0.000750145
-0.000809559
-0.000879549
-0.000945576
-0.000915725
-0.00066572
-0.000704786
-0.000753738
-0.000814703
-0.000886905
-0.000954995
-0.000925947
-0.00066745
-0.00070719
-0.000757231
-0.000819856
-0.000893826
-0.000958932
-0.000922737
-0.000659693
-0.000694553
-0.000736157
-0.00078414
-0.000837196
-0.000889012
-0.000880931
-0.000660667
-0.000695833
-0.000737782
-0.000786149
-0.000839579
-0.000891687
-0.000883759
-0.000661881
-0.000697451
-0.000739878
-0.000788801
-0.000842789
-0.000895326
-0.000887594
-0.000663305
-0.000699383
-0.000742437
-0.000792116
-0.000846899
-0.000900029
-0.000892521
-0.000664881
-0.000701568
-0.000745407
-0.000796052
-0.000851989
-0.000906092
-0.000898958
-0.00066657
-0.000703966
-0.000748752
-0.000800705
-0.00085833
-0.000913791
-0.000906638
-0.000668129
-0.000706184
-0.000751949
-0.000805474
-0.000865026
-0.000918625
-0.000905866
-0.000653701
-0.000684712
-0.000720523
-0.000760363
-0.000802361
-0.00084213
-0.000846476
-0.000654608
-0.000685881
-0.000721989
-0.000762129
-0.000804407
-0.000844358
-0.000848739
-0.000655732
-0.00068735
-0.000723862
-0.000764428
-0.000807115
-0.000847318
-0.000851713
-0.000657043
-0.000689089
-0.000726123
-0.000767261
-0.00081051
-0.000851036
-0.000855384
-0.000658489
-0.000691043
-0.000728713
-0.000770584
-0.000814632
-0.000855678
-0.000859967
-0.000660047
-0.000693184
-0.000731618
-0.000774473
-0.000819761
-0.000861607
-0.000865559
-0.000661498
-0.000695184
-0.000734396
-0.000778442
-0.000825146
-0.000866265
-0.000867541
-0.000259995
-0.000310188
-0.000363849
-0.000407586
-0.000443614
-0.000473905
-0.000499865
-0.000263922
-0.00031552
-0.000367702
-0.000409801
-0.000444705
-0.000474265
-0.000499761
-0.000270077
-0.000320857
-0.000371483
-0.000412226
-0.000446169
-0.000475051
-0.000500063
-0.000275526
-0.00032535
-0.000374789
-0.000414514
-0.000447686
-0.000475986
-0.000500559
-0.000280028
-0.000329154
-0.000377702
-0.000416614
-0.00044913
-0.000476916
-0.00050109
-0.000283638
-0.000332285
-0.000380178
-0.000418458
-0.00045044
-0.000477791
-0.000501619
-0.000286371
-0.000334713
-0.000382152
-0.000419971
-0.000451546
-0.000478554
-0.000502098
-0.000350667
-0.000379244
-0.00041312
-0.000443506
-0.000469933
-0.000492992
-0.000513319
-0.000352189
-0.000381495
-0.000414827
-0.00044437
-0.000470141
-0.000492786
-0.000512869
-0.000355284
-0.000384388
-0.000416979
-0.000445721
-0.000470881
-0.000493088
-0.00051286
-0.000358433
-0.000387167
-0.00041911
-0.000447204
-0.000471842
-0.000493645
-0.000513103
-0.000361193
-0.000389621
-0.000421057
-0.000448624
-0.000472814
-0.000494251
-0.000513418
-0.000363494
-0.000391712
-0.000422765
-0.000449915
-0.000473732
-0.000494856
-0.000513763
-0.000365298
-0.000393384
-0.000424166
-0.000451004
-0.000474531
-0.000495401
-0.000514093
-0.000431692
-0.000442949
-0.000460652
-0.000479197
-0.000496526
-0.000512451
-0.000527044
-0.000431876
-0.000443237
-0.000460911
-0.000479116
-0.000496129
-0.000511876
-0.000526383
-0.000433035
-0.000444459
-0.000461863
-0.000479651
-0.000496321
-0.000511823
-0.000526155
-0.000434584
-0.00044597
-0.000463077
-0.000480489
-0.000496837
-0.000512079
-0.000526203
-0.000436079
-0.000447409
-0.000464271
-0.000481368
-0.000497427
-0.000512423
-0.000526345
-0.0004374
-0.000448703
-0.000465376
-0.000482213
-0.000498025
-0.000512804
-0.000526541
-0.000438482
-0.000449784
-0.000466318
-0.000482955
-0.000498568
-0.000513168
-0.000526747
-0.000501507
-0.000499927
-0.000505059
-0.000513645
-0.000522819
-0.000532017
-0.000540969
-0.000501104
-0.000499124
-0.000504477
-0.000513012
-0.000522077
-0.000531244
-0.000540208
-0.000501161
-0.000499313
-0.000504645
-0.000512996
-0.000521898
-0.000530951
-0.000539836
-0.0005017
-0.000499968
-0.000505204
-0.000513356
-0.000522075
-0.000530976
-0.000539737
-0.000502352
-0.000500701
-0.000505848
-0.000513822
-0.000522365
-0.000531112
-0.000539742
-0.00050299
-0.000501427
-0.000506506
-0.000514322
-0.000522706
-0.00053131
-0.000539814
-0.000503548
-0.000502074
-0.000507105
-0.00051479
-0.000523041
-0.000531524
-0.000539918
-0.000560974
-0.000549911
-0.000545433
-0.000545878
-0.000547989
-0.000551074
-0.000554696
-0.000560431
-0.000548618
-0.000544461
-0.000544991
-0.000547094
-0.000550224
-0.000553911
-0.000559932
-0.000548236
-0.000544175
-0.000544648
-0.000546691
-0.000549788
-0.000553458
-0.000559876
-0.000548352
-0.000544301
-0.000544681
-0.00054663
-0.00054965
-0.000553255
-0.000559997
-0.000548615
-0.000544562
-0.000544847
-0.000546698
-0.00054963
-0.000553158
-0.000560182
-0.000548944
-0.000544897
-0.000545089
-0.000546842
-0.000549686
-0.000553135
-0.000560375
-0.000549272
-0.000545239
-0.000545347
-0.000547013
-0.00054978
-0.000553157
-0.000611572
-0.000593179
-0.000581316
-0.000575195
-0.000571352
-0.000569052
-0.000567807
-0.000611095
-0.000591735
-0.000580214
-0.000574246
-0.000570434
-0.000568208
-0.00056705
-0.000610363
-0.000591074
-0.000579701
-0.00057374
-0.00056992
-0.000567706
-0.000566567
-0.000609985
-0.000590868
-0.000579555
-0.000573566
-0.00056971
-0.000567467
-0.000566302
-0.000609802
-0.000590826
-0.000579551
-0.000573527
-0.000569626
-0.00056734
-0.000566136
-0.000609722
-0.000590885
-0.000579642
-0.000573578
-0.000569628
-0.000567295
-0.000566045
-0.000609702
-0.000590991
-0.000579777
-0.000573674
-0.000569678
-0.000567299
-0.000566005
-0.000522702
-0.000543516
-0.000563279
-0.000582894
-0.000603293
-0.000624971
-0.000522322
-0.000542986
-0.000562665
-0.000582197
-0.000602435
-0.000624037
-0.000522287
-0.000542719
-0.000562226
-0.000581611
-0.000601708
-0.000623059
-0.00052245
-0.000542628
-0.000561928
-0.000581125
-0.000601039
-0.000622137
-0.000522672
-0.000542602
-0.000561693
-0.000580694
-0.000600405
-0.00062128
-0.000522923
-0.000542625
-0.000561518
-0.000580331
-0.000599828
-0.000620526
-0.000523168
-0.000542675
-0.000561396
-0.000580044
-0.000599352
-0.000619908
-0.00053157
-0.00054843
-0.000564553
-0.000580547
-0.000596972
-0.000614306
-0.000530991
-0.000547801
-0.000563907
-0.000579869
-0.000596171
-0.000613536
-0.000530769
-0.000547435
-0.000563436
-0.0005793
-0.000595487
-0.000612712
-0.000530775
-0.000547258
-0.000563108
-0.00057883
-0.000594855
-0.000611925
-0.000530859
-0.000547157
-0.000562849
-0.000578424
-0.000594299
-0.000611196
-0.000530993
-0.000547115
-0.000562654
-0.00057809
-0.000593848
-0.000610561
-0.000531142
-0.000547111
-0.000562515
-0.000577829
-0.000593488
-0.000610038
-0.000540485
-0.000553093
-0.000565224
-0.000577228
-0.000589427
-0.000601929
-0.0005398
-0.000552425
-0.000564587
-0.000576603
-0.000588744
-0.000601321
-0.000539455
-0.000552004
-0.000564114
-0.000576082
-0.000588176
-0.00060066
-0.000539344
-0.00055177
-0.000563778
-0.000575652
-0.000587647
-0.000600016
-0.000539323
-0.000551617
-0.00056351
-0.000575278
-0.000587164
-0.000599413
-0.000539363
-0.000551527
-0.000563306
-0.000574969
-0.000586752
-0.000598881
-0.000539434
-0.000551481
-0.000563158
-0.000574725
-0.000586417
-0.00059844
-0.000549529
-0.00055773
-0.000565683
-0.000573518
-0.00058136
-0.000589037
-0.000548808
-0.000557067
-0.000565082
-0.000572955
-0.000580745
-0.000588564
-0.000548388
-0.000556623
-0.000564625
-0.000572489
-0.000580285
-0.000588044
-0.000548192
-0.000556352
-0.000564293
-0.000572101
-0.000579841
-0.000587527
-0.000548089
-0.000556161
-0.000564026
-0.000571762
-0.000579429
-0.000587036
-0.000548054
-0.000556035
-0.000563818
-0.000571479
-0.000579072
-0.000586599
-0.000548061
-0.000555957
-0.000563665
-0.000571256
-0.000578779
-0.000586233
-0.000558507
-0.000562337
-0.000566112
-0.000569783
-0.000573297
-0.000576406
-0.000557796
-0.000561708
-0.000565561
-0.000569297
-0.000572837
-0.000576049
-0.00055734
-0.000561262
-0.000565131
-0.00056888
-0.000572427
-0.000575638
-0.000557088
-0.000560972
-0.000564811
-0.000568532
-0.000572048
-0.000575223
-0.000556926
-0.000560756
-0.000564549
-0.000568227
-0.000571698
-0.000574826
-0.000556833
-0.000560604
-0.000564343
-0.00056797
-0.000571392
-0.000574468
-0.000556789
-0.000560501
-0.000564188
-0.000567766
-0.00057114
-0.000574167
-0.00056716
-0.000566814
-0.000566562
-0.00056623
-0.000565646
-0.00056449
-0.000566491
-0.000566234
-0.000566067
-0.000565808
-0.00056527
-0.000564212
-0.000566032
-0.000565805
-0.00056567
-0.00056544
-0.000564924
-0.000563885
-0.000565749
-0.00056551
-0.000565367
-0.000565129
-0.000564603
-0.000563551
-0.000565549
-0.000565282
-0.000565115
-0.000564853
-0.000564305
-0.000563228
-0.000565417
-0.000565114
-0.000564914
-0.000564623
-0.000564044
-0.000562936
-0.000565336
-0.000564995
-0.000564761
-0.000564438
-0.000563827
-0.000562687
-0.000649178
-0.000676544
-0.000707095
-0.000739755
-0.000772337
-0.000798599
-0.000802276
-0.000648003
-0.000674975
-0.000704967
-0.000736807
-0.000768551
-0.000795151
-0.000799711
-0.000646702
-0.000673248
-0.000702705
-0.000733875
-0.000764863
-0.000791169
-0.000796132
-0.000645469
-0.000671634
-0.000700637
-0.000731299
-0.000761781
-0.000787872
-0.000793084
-0.000644336
-0.000670171
-0.000698795
-0.000729053
-0.000759167
-0.000785108
-0.000790476
-0.000643353
-0.000668918
-0.000697241
-0.000727191
-0.000757031
-0.000782847
-0.000788294
-0.000642551
-0.000667907
-0.000696006
-0.000725732
-0.00075538
-0.000781102
-0.000786588
-0.000633031
-0.000653344
-0.000674863
-0.000696486
-0.000716375
-0.000729632
-0.000729364
-0.000632139
-0.000652226
-0.000673415
-0.000694562
-0.000714092
-0.000727699
-0.000727461
-0.000631112
-0.000650929
-0.000671786
-0.00069253
-0.000711662
-0.000725269
-0.000725398
-0.000630112
-0.000649668
-0.00067023
-0.000690658
-0.000709502
-0.000723069
-0.000723491
-0.000629182
-0.000648503
-0.00066881
-0.000688981
-0.000707611
-0.000721141
-0.000721751
-0.000628364
-0.000647488
-0.000667585
-0.000687554
-0.000706022
-0.000719514
-0.000720246
-0.000627691
-0.000646657
-0.000666593
-0.00068641
-0.000704761
-0.000718222
-0.000719032
-0.000614993
-0.000628475
-0.000641791
-0.000653962
-0.000663552
-0.000666397
-0.00065982
-0.000614351
-0.000627735
-0.000640897
-0.000652832
-0.000662338
-0.000665546
-0.000658471
-0.000613573
-0.000626804
-0.000639783
-0.000651497
-0.000660817
-0.000664143
-0.000657325
-0.00061279
-0.000625856
-0.000638657
-0.000650189
-0.000659362
-0.000662732
-0.000656187
-0.000612049
-0.00062496
-0.0006376
-0.000648981
-0.000658043
-0.000661441
-0.000655086
-0.000611389
-0.000624164
-0.000636668
-0.000647925
-0.000656902
-0.000660316
-0.000654099
-0.000610839
-0.000623503
-0.000635897
-0.000647061
-0.000655974
-0.000659396
-0.000653275
-0.000596667
-0.000603907
-0.000610104
-0.000614409
-0.000615708
-0.000610184
-0.000597034
-0.00059622
-0.000603444
-0.000609594
-0.000613797
-0.00061514
-0.000609961
-0.000595946
-0.000595644
-0.000602795
-0.000608857
-0.000612954
-0.000614228
-0.000609199
-0.000595319
-0.000595044
-0.000602099
-0.000608062
-0.000612063
-0.000613274
-0.000608328
-0.000594677
-0.000594465
-0.000601424
-0.000607293
-0.000611212
-0.000612377
-0.000607492
-0.000594018
-0.000593942
-0.000600813
-0.000606599
-0.000610449
-0.000611577
-0.000606738
-0.000593402
-0.000593501
-0.000600297
-0.000606014
-0.00060981
-0.000610911
-0.000606106
-0.000592871
-0.000579013
-0.000580699
-0.000580805
-0.000578605
-0.000573208
-0.000560881
-0.000541663
-0.000578705
-0.000580418
-0.000580531
-0.000578292
-0.000572992
-0.000561001
-0.00054068
-0.000578281
-0.00057997
-0.000580053
-0.000577768
-0.000572456
-0.000560615
-0.000540333
-0.000577823
-0.000579463
-0.000579497
-0.000577169
-0.00057184
-0.000560088
-0.000539986
-0.000577374
-0.000578959
-0.000578942
-0.000576576
-0.000571237
-0.000559555
-0.000539603
-0.000576962
-0.000578493
-0.00057843
-0.00057603
-0.000570684
-0.00055906
-0.000539232
-0.000576612
-0.000578095
-0.000577991
-0.000575563
-0.000570213
-0.000558633
-0.000538902
-0.000562551
-0.000559369
-0.000554308
-0.000546756
-0.000535938
-0.000518105
-0.000493515
-0.000562333
-0.000559196
-0.000554163
-0.000546591
-0.000535896
-0.000518369
-0.000492541
-0.000562015
-0.000558881
-0.000553846
-0.000546256
-0.00053557
-0.000518185
-0.000492329
-0.000561663
-0.000558508
-0.000553453
-0.000545846
-0.000535162
-0.000517857
-0.000492136
-0.000561313
-0.000558129
-0.00055305
-0.000545428
-0.000534751
-0.000517507
-0.000491898
-0.000560988
-0.000557773
-0.00055267
-0.000545034
-0.000534364
-0.000517172
-0.000491661
-0.000560709
-0.000557465
-0.000552339
-0.000544691
-0.000534027
-0.000516878
-0.000491446
-0.000288304
-0.000336464
-0.00038361
-0.000421115
-0.000452401
-0.000479156
-0.000502486
-0.00028953
-0.000337594
-0.000384567
-0.000421878
-0.000452979
-0.00047957
-0.000502757
-0.000290124
-0.000338147
-0.00038504
-0.000422258
-0.00045327
-0.00047978
-0.000502896
-0.000290123
-0.000338146
-0.000385039
-0.000422257
-0.00045327
-0.00047978
-0.000502896
-0.000289528
-0.000337592
-0.000384565
-0.000421876
-0.000452978
-0.000479569
-0.000502756
-0.0002883
-0.00033646
-0.000383607
-0.000421113
-0.000452399
-0.000479155
-0.000502485
-0.000366607
-0.000394619
-0.000425223
-0.000451843
-0.00047516
-0.000495842
-0.000514369
-0.000367453
-0.000395429
-0.000425926
-0.000452409
-0.000475592
-0.000496149
-0.000514565
-0.000367867
-0.000395828
-0.000426276
-0.000452694
-0.000475811
-0.000496306
-0.000514667
-0.000367867
-0.000395828
-0.000426275
-0.000452694
-0.000475811
-0.000496306
-0.000514667
-0.000367451
-0.000395427
-0.000425924
-0.000452408
-0.000475591
-0.000496149
-0.000514565
-0.000366604
-0.000394616
-0.00042522
-0.000451841
-0.000475159
-0.000495842
-0.000514369
-0.000439293
-0.000450604
-0.000467047
-0.00048354
-0.000499008
-0.000513472
-0.000526929
-0.00043983
-0.000451151
-0.000467538
-0.000483941
-0.000499314
-0.000513688
-0.000527062
-0.000440097
-0.000451422
-0.000467785
-0.000484144
-0.000499471
-0.0005138
-0.000527132
-0.000440096
-0.000451422
-0.000467784
-0.000484144
-0.000499471
-0.0005138
-0.000527132
-0.000439829
-0.000451149
-0.000467537
-0.00048394
-0.000499314
-0.000513688
-0.000527062
-0.000439291
-0.000450602
-0.000467045
-0.000483539
-0.000499007
-0.000513472
-0.000526929
-0.000503987
-0.000502584
-0.000507584
-0.000515173
-0.000523324
-0.000531713
-0.00054002
-0.000504288
-0.000502928
-0.000507909
-0.000515439
-0.000523526
-0.000531852
-0.000540099
-0.000504442
-0.000503101
-0.000508072
-0.000515575
-0.00052363
-0.000531924
-0.000540142
-0.000504441
-0.0005031
-0.000508072
-0.000515575
-0.00052363
-0.000531924
-0.000540142
-0.000504287
-0.000502928
-0.000507908
-0.000515439
-0.000523526
-0.000531852
-0.000540099
-0.000503986
-0.000502582
-0.000507582
-0.000515172
-0.000523324
-0.000531713
-0.000540021
-0.000560546
-0.000549547
-0.000545526
-0.000545572
-0.000547171
-0.000549876
-0.000553194
-0.000560677
-0.000549743
-0.000545724
-0.000545731
-0.000547288
-0.000549951
-0.000553228
-0.000560748
-0.000549841
-0.000545822
-0.000545813
-0.00054735
-0.000549992
-0.000553248
-0.000560748
-0.000549841
-0.000545822
-0.000545813
-0.00054735
-0.000549992
-0.000553248
-0.000560677
-0.000549742
-0.000545723
-0.000545731
-0.000547288
-0.000549951
-0.000553229
-0.000560545
-0.000549547
-0.000545526
-0.000545571
-0.000547171
-0.000549876
-0.000553194
-0.000609712
-0.000591098
-0.000579907
-0.000573773
-0.00056974
-0.000567324
-0.000565992
-0.000609732
-0.000591176
-0.00058
-0.000573848
-0.000569793
-0.000567351
-0.000565992
-0.000609747
-0.000591217
-0.000580048
-0.000573889
-0.000569822
-0.000567367
-0.000565995
-0.000609747
-0.000591217
-0.000580048