/*--------------------------------*- C++ -*----------------------------------*\
  =========                 |
  \\      /  F ield         | OpenFOAM: The Open Source CFD Toolbox
   \\    /   O peration     | Website:  https://openfoam.org
    \\  /    A nd           | Version:  7
     \\/     M anipulation  |
\*---------------------------------------------------------------------------*/
FoamFile
{
    version     2.0;
    format      ascii;
    class       volScalarField;
    location    "1";
    object      p;
}
// * * * * * * * * * * * * * * * * * * * * * * * * * * * * * * * * * * * * * //

dimensions      [0 2 -2 0 0 0 0];

internalField   nonuniform List<scalar> 
7784
(
3.43769e-10
-0.000834188
-0.00250201
-0.00547946
-0.00768201
-0.00937238
-0.0108469
0.00102287
2.52546e-06
-0.00227971
-0.00540733
-0.00762878
-0.00933759
-0.0108259
0.00122267
0.000143216
-0.00220769
-0.00535631
-0.00758843
-0.0093089
-0.0108064
0.00133136
0.000231246
-0.00214966
-0.00531426
-0.0075566
-0.00928535
-0.0107895
0.00141278
0.000299129
-0.00210156
-0.00527923
-0.0075301
-0.00926537
-0.0107747
0.00146881
0.00034665
-0.00206511
-0.00525134
-0.00750856
-0.00924886
-0.0107623
0.00150736
0.000380039
-0.00203818
-0.00522998
-0.00749173
-0.00923577
-0.0107524
-0.00182525
-0.00251493
-0.00428847
-0.00646372
-0.00822865
-0.00972137
-0.0110718
-0.00140957
-0.0021735
-0.00414451
-0.00639875
-0.00818428
-0.00969262
-0.011054
-0.00128003
-0.0020765
-0.0040818
-0.0063515
-0.00814751
-0.00966616
-0.0110358
-0.00118887
-0.00200227
-0.00402863
-0.00631136
-0.00811682
-0.00964335
-0.0110194
-0.00111604
-0.00194137
-0.00398322
-0.00627711
-0.00809066
-0.00962361
-0.0110048
-0.00106303
-0.00189626
-0.00394778
-0.00624949
-0.0080692
-0.00960715
-0.0109925
-0.00102539
-0.00186363
-0.0039212
-0.0062282
-0.00805237
-0.00959406
-0.0109825
-0.00475664
-0.0050577
-0.00609457
-0.00752302
-0.00889011
-0.0101609
-0.0113601
-0.00460541
-0.00491195
-0.00600101
-0.00747008
-0.0088544
-0.0101367
-0.0113441
-0.00450962
-0.00483334
-0.0059451
-0.00742914
-0.00882331
-0.0101139
-0.011328
-0.00443561
-0.00477183
-0.00589853
-0.00739361
-0.00879603
-0.0100934
-0.0113131
-0.00437627
-0.00472142
-0.00585881
-0.00736277
-0.00877216
-0.0100752
-0.0112996
-0.00433093
-0.00468234
-0.00582701
-0.00733744
-0.00875226
-0.0100598
-0.011288
-0.00429752
-0.00465313
-0.00580267
-0.00731767
-0.00873649
-0.0100475
-0.0112785
-0.0121849
-0.0134352
-0.0146383
-0.0158278
-0.0170347
-0.0182919
-0.0121721
-0.0134276
-0.0146345
-0.015827
-0.017037
-0.0182977
-0.0121591
-0.0134195
-0.0146301
-0.0158258
-0.0170387
-0.0183026
-0.0121474
-0.0134118
-0.0146257
-0.0158242
-0.0170398
-0.0183063
-0.0121368
-0.0134047
-0.0146215
-0.0158225
-0.0170403
-0.018309
-0.0121278
-0.0133985
-0.0146177
-0.0158208
-0.0170405
-0.0183111
-0.0121205
-0.0133934
-0.0146145
-0.0158193
-0.0170406
-0.0183126
-0.0123234
-0.0135093
-0.0146589
-0.0157978
-0.0169506
-0.0181427
-0.0123124
-0.0135027
-0.0146554
-0.0157969
-0.0169523
-0.0181473
-0.0123002
-0.013495
-0.0146512
-0.0157957
-0.0169539
-0.0181518
-0.0122887
-0.0134875
-0.0146469
-0.0157942
-0.0169549
-0.0181554
-0.0122784
-0.0134805
-0.0146428
-0.0157925
-0.0169555
-0.0181583
-0.0122694
-0.0134744
-0.0146391
-0.0157909
-0.0169558
-0.0181605
-0.0122621
-0.0134693
-0.0146359
-0.0157894
-0.0169559
-0.0181621
-0.0125021
-0.013603
-0.0146795
-0.0157483
-0.0168257
-0.0179277
-0.0124918
-0.0135966
-0.0146762
-0.0157475
-0.0168274
-0.017932
-0.0124808
-0.0135896
-0.0146723
-0.0157464
-0.0168288
-0.0179361
-0.0124703
-0.0135827
-0.0146683
-0.015745
-0.0168298
-0.0179395
-0.0124606
-0.0135761
-0.0146644
-0.0157434
-0.0168304
-0.0179422
-0.0124522
-0.0135703
-0.0146609
-0.0157419
-0.0168307
-0.0179444
-0.0124452
-0.0135655
-0.0146579
-0.0157405
-0.0168309
-0.0179461
-0.019638
-0.0211201
-0.0227977
-0.0248229
-0.0274544
-0.0293994
-0.0292839
-0.0196486
-0.0211382
-0.0228257
-0.0248588
-0.0275782
-0.0299197
-0.029928
-0.0196572
-0.0211514
-0.0228444
-0.0248816
-0.0276087
-0.0299852
-0.0300299
-0.0196636
-0.0211608
-0.0228572
-0.0248981
-0.0276311
-0.0300248
-0.0300836
-0.0196686
-0.0211683
-0.0228674
-0.0249119
-0.0276511
-0.0300567
-0.0301246
-0.0196726
-0.0211743
-0.0228757
-0.0249231
-0.0276667
-0.0300788
-0.0301524
-0.0196756
-0.0211789
-0.0228821
-0.0249318
-0.0276784
-0.0300943
-0.0301712
-0.0194023
-0.0207602
-0.0222497
-0.0239548
-0.0259974
-0.0275985
-0.0277212
-0.0194107
-0.0207748
-0.0222728
-0.0239867
-0.0260788
-0.0278389
-0.0280123
-0.0194187
-0.020787
-0.0222896
-0.0240065
-0.0261032
-0.0278847
-0.0280809
-0.0194251
-0.0207964
-0.0223023
-0.0240228
-0.026125
-0.0279193
-0.0281269
-0.0194302
-0.0208041
-0.0223129
-0.0240371
-0.0261449
-0.0279489
-0.0281643
-0.0194343
-0.0208103
-0.0223216
-0.0240488
-0.0261608
-0.0279706
-0.0281913
-0.0194375
-0.0208152
-0.0223284
-0.0240579
-0.0261728
-0.0279863
-0.0282102
-0.0190693
-0.0202633
-0.021516
-0.022836
-0.0241866
-0.0251028
-0.0251214
-0.0190772
-0.0202758
-0.0215346
-0.0228628
-0.0242396
-0.0252003
-0.0252077
-0.0190842
-0.0202864
-0.021549
-0.0228811
-0.0242649
-0.0252405
-0.0252577
-0.0190902
-0.0202952
-0.021561
-0.0228966
-0.0242859
-0.0252708
-0.0252958
-0.0190951
-0.0203026
-0.0215712
-0.0229103
-0.0243044
-0.025296
-0.0253265
-0.0190992
-0.0203087
-0.0215797
-0.0229216
-0.0243193
-0.0253153
-0.0253498
-0.0191024
-0.0203135
-0.0215863
-0.0229304
-0.0243307
-0.0253297
-0.0253669
0.00153342
0.000402977
-0.00201913
-0.00521452
-0.00747937
-0.00922605
-0.0107449
0.00154962
0.000417392
-0.00200696
-0.00520449
-0.00747127
-0.00921963
-0.0107399
0.00155739
0.000424341
-0.00200104
-0.00519958
-0.00746728
-0.00921645
-0.0107374
0.00155736
0.000424307
-0.00200107
-0.00519961
-0.00746731
-0.00921648
-0.0107375
0.00154952
0.000417289
-0.00200706
-0.00520459
-0.00747137
-0.00921971
-0.01074
0.00153325
0.000402809
-0.0020193
-0.00521468
-0.00747952
-0.00922619
-0.010745
-0.000999585
-0.00184094
-0.00390228
-0.00621276
-0.00803999
-0.00958433
-0.010975
-0.000983445
-0.00182661
-0.00389016
-0.00620273
-0.00803187
-0.00957789
-0.01097
-0.000975689
-0.00181969
-0.00388425
-0.00619781
-0.00802787
-0.0095747
-0.0109676
-0.000975723
-0.00181972
-0.00388428
-0.00619784
-0.0080279
-0.00957473
-0.0109676
-0.000983548
-0.00182671
-0.00389026
-0.00620283
-0.00803197
-0.00957797
-0.0109701
-0.000999754
-0.00184111
-0.00390245
-0.00621292
-0.00804014
-0.00958446
-0.0109751
-0.0042741
-0.00463241
-0.00578512
-0.00730319
-0.00872479
-0.0100383
-0.0112714
-0.00425924
-0.00461916
-0.00577377
-0.00729372
-0.00871709
-0.0100321
-0.0112667
-0.00425204
-0.00461272
-0.00576822
-0.00728907
-0.00871328
-0.0100291
-0.0112643
-0.00425207
-0.00461275
-0.00576826
-0.0072891
-0.00871331
-0.0100291
-0.0112643
-0.00425934
-0.00461926
-0.00577387
-0.00729382
-0.00871718
-0.0100322
-0.0112667
-0.00427426
-0.00463258
-0.00578529
-0.00730334
-0.00872494
-0.0100384
-0.0112715
-0.0121149
-0.0133895
-0.014612
-0.0158181
-0.0170406
-0.0183137
-0.0121112
-0.0133869
-0.0146103
-0.0158173
-0.0170405
-0.0183144
-0.0121093
-0.0133855
-0.0146095
-0.0158168
-0.0170405
-0.0183148
-0.0121094
-0.0133855
-0.0146095
-0.0158168
-0.0170405
-0.0183148
-0.0121113
-0.0133869
-0.0146104
-0.0158173
-0.0170405
-0.0183144
-0.012115
-0.0133896
-0.0146121
-0.0158181
-0.0170406
-0.0183137
-0.0122565
-0.0134654
-0.0146334
-0.0157883
-0.0169559
-0.0181633
-0.0122528
-0.0134628
-0.0146317
-0.0157874
-0.0169559
-0.018164
-0.012251
-0.0134614
-0.0146309
-0.015787
-0.0169559
-0.0181644
-0.012251
-0.0134615
-0.0146309
-0.015787
-0.0169559
-0.0181644
-0.0122529
-0.0134628
-0.0146318
-0.0157874
-0.0169559
-0.018164
-0.0122566
-0.0134655
-0.0146335
-0.0157883
-0.016956
-0.0181633
-0.0124399
-0.0135618
-0.0146556
-0.0157394
-0.016831
-0.0179472
-0.0124364
-0.0135592
-0.014654
-0.0157387
-0.016831
-0.017948
-0.0124346
-0.013558
-0.0146531
-0.0157383
-0.016831
-0.0179484
-0.0124346
-0.013558
-0.0146532
-0.0157383
-0.016831
-0.0179484
-0.0124364
-0.0135593
-0.014654
-0.0157387
-0.016831
-0.017948
-0.01244
-0.0135618
-0.0146556
-0.0157395
-0.016831
-0.0179472
-0.0196779
-0.0211823
-0.0228869
-0.0249382
-0.0276867
-0.0301049
-0.0301839
-0.0196793
-0.0211846
-0.02289
-0.0249424
-0.0276921
-0.0301116
-0.0301918
-0.01968
-0.0211857
-0.0228916
-0.0249444
-0.0276947
-0.0301149
-0.0301955
-0.01968
-0.0211857
-0.0228916
-0.0249444
-0.0276947
-0.0301148
-0.0301955
-0.0196793
-0.0211846
-0.02289
-0.0249423
-0.0276921
-0.0301116
-0.0301917
-0.0196779
-0.0211823
-0.0228869
-0.0249381
-0.0276867
-0.0301049
-0.0301838
-0.0194399
-0.0208188
-0.0223334
-0.0240645
-0.0261814
-0.0279972
-0.0282231
-0.0194414
-0.0208211
-0.0223367
-0.0240688
-0.026187
-0.0280041
-0.0282311
-0.0194422
-0.0208223
-0.0223383
-0.024071
-0.0261897
-0.0280074
-0.028235
-0.0194422
-0.0208223
-0.0223383
-0.0240709
-0.0261896
-0.0280074
-0.028235
-0.0194414
-0.0208211
-0.0223366
-0.0240688
-0.0261869
-0.028004
-0.0282311
-0.0194399
-0.0208187
-0.0223333
-0.0240644
-0.0261814
-0.0279971
-0.028223
-0.0191047
-0.0203171
-0.0215912
-0.0229369
-0.024339
-0.0253399
-0.0253788
-0.0191062
-0.0203194
-0.0215945
-0.0229411
-0.0243443
-0.0253464
-0.0253863
-0.019107
-0.0203206
-0.0215961
-0.0229432
-0.0243469
-0.0253496
-0.02539
-0.019107
-0.0203206
-0.0215961
-0.0229432
-0.0243469
-0.0253496
-0.02539
-0.0191062
-0.0203194
-0.0215944
-0.0229411
-0.0243443
-0.0253464
-0.0253863
-0.0191047
-0.0203171
-0.0215912
-0.0229369
-0.0243389
-0.0253399
-0.0253787
0.00150713
0.000379809
-0.0020384
-0.00523019
-0.00749193
-0.00923595
-0.0107525
0.00146852
0.000346367
-0.00206539
-0.0052516
-0.0075088
-0.00924908
-0.0107625
0.00141245
0.000298801
-0.00210188
-0.00527953
-0.00753038
-0.00926563
-0.010775
0.00133099
0.000230877
-0.00215002
-0.0053146
-0.00755692
-0.00928563
-0.0107897
0.00122227
0.000142813
-0.00220808
-0.0053567
-0.00758878
-0.00930922
-0.0108067
0.00102243
2.08778e-06
-0.00228014
-0.00540775
-0.00762917
-0.00933794
-0.0108262
-4.85465e-07
-0.00083466
-0.00250246
-0.0054799
-0.00768242
-0.00937275
-0.0108472
-0.00102562
-0.00186386
-0.00392143
-0.00622842
-0.00805257
-0.00959424
-0.0109827
-0.00106331
-0.00189654
-0.00394806
-0.00624975
-0.00806944
-0.00960737
-0.0109926
-0.00111637
-0.0019417
-0.00398354
-0.00627742
-0.00809094
-0.00962386
-0.011005
-0.00118924
-0.00200264
-0.00402899
-0.00631171
-0.00811714
-0.00964363
-0.0110196
-0.00128043
-0.0020769
-0.00408219
-0.00635188
-0.00814786
-0.00966648
-0.0110361
-0.00141001
-0.00217393
-0.00414494
-0.00639916
-0.00818466
-0.00969297
-0.0110543
-0.00182573
-0.0025154
-0.00428892
-0.00646415
-0.00822905
-0.00972173
-0.0110721
-0.00429775
-0.00465336
-0.0058029
-0.00731788
-0.00873668
-0.0100477
-0.0112787
-0.00433122
-0.00468262
-0.00582728
-0.00733771
-0.0087525
-0.01006
-0.0112881
-0.0043766
-0.00472175
-0.00585913
-0.00736307
-0.00877244
-0.0100755
-0.0112998
-0.00443599
-0.0047722
-0.00589889
-0.00739395
-0.00879634
-0.0100937
-0.0113133
-0.00451003
-0.00483375
-0.0059455
-0.00742952
-0.00882366
-0.0101142
-0.0113283
-0.00460584
-0.00491239
-0.00600143
-0.00747048
-0.00885477
-0.010137
-0.0113444
-0.00475711
-0.00505816
-0.00609501
-0.00752344
-0.00889049
-0.0101612
-0.0113604
-0.0121206
-0.0133935
-0.0146146
-0.0158194
-0.0170406
-0.0183127
-0.012128
-0.0133987
-0.0146178
-0.0158209
-0.0170406
-0.0183111
-0.012137
-0.0134049
-0.0146216
-0.0158226
-0.0170404
-0.018309
-0.0121476
-0.013412
-0.0146259
-0.0158244
-0.0170398
-0.0183063
-0.0121594
-0.0134197
-0.0146303
-0.015826
-0.0170388
-0.0183026
-0.0121723
-0.0134279
-0.0146347
-0.0158272
-0.0170371
-0.0182977
-0.0121852
-0.0134355
-0.0146385
-0.0158279
-0.0170348
-0.0182919
-0.0122622
-0.0134694
-0.014636
-0.0157895
-0.016956
-0.0181621
-0.0122696
-0.0134745
-0.0146391
-0.015791
-0.0169558
-0.0181605
-0.0122786
-0.0134807
-0.0146429
-0.0157926
-0.0169555
-0.0181583
-0.012289
-0.0134877
-0.0146471
-0.0157943
-0.016955
-0.0181554
-0.0123004
-0.0134952
-0.0146514
-0.0157958
-0.0169539
-0.0181518
-0.0123127
-0.0135029
-0.0146556
-0.015797
-0.0169524
-0.0181473
-0.0123237
-0.0135096
-0.0146591
-0.015798
-0.0169507
-0.0181428
-0.0124453
-0.0135656
-0.014658
-0.0157406
-0.0168309
-0.0179461
-0.0124523
-0.0135704
-0.014661
-0.0157419
-0.0168308
-0.0179444
-0.0124608
-0.0135763
-0.0146645
-0.0157435
-0.0168304
-0.0179422
-0.0124705
-0.0135828
-0.0146684
-0.0157451
-0.0168298
-0.0179395
-0.0124811
-0.0135898
-0.0146724
-0.0157465
-0.0168289
-0.0179361
-0.0124921
-0.0135968
-0.0146763
-0.0157477
-0.0168275
-0.0179321
-0.0125024
-0.0136032
-0.0146797
-0.0157485
-0.0168258
-0.0179277
-0.0196756
-0.0211789
-0.0228821
-0.0249317
-0.0276783
-0.0300942
-0.0301711
-0.0196726
-0.0211742
-0.0228756
-0.024923
-0.0276666
-0.0300787
-0.0301522
-0.0196686
-0.0211683
-0.0228673
-0.0249118
-0.027651
-0.0300565
-0.0301245
-0.0196636
-0.0211608
-0.0228571
-0.024898
-0.027631
-0.0300247
-0.0300835
-0.0196572
-0.0211513
-0.0228443
-0.0248815
-0.0276086
-0.0299851
-0.0300298
-0.0196486
-0.0211381
-0.0228256
-0.0248587
-0.0275781
-0.0299197
-0.0299279
-0.019638
-0.02112
-0.0227976
-0.0248228
-0.0274543
-0.0293993
-0.0292838
-0.0194375
-0.0208151
-0.0223283
-0.0240578
-0.0261727
-0.0279862
-0.0282101
-0.0194343
-0.0208103
-0.0223215
-0.0240487
-0.0261607
-0.0279705
-0.0281912
-0.0194302
-0.020804
-0.0223129
-0.024037
-0.0261448
-0.0279487
-0.0281642
-0.019425
-0.0207963
-0.0223022
-0.0240227
-0.0261248
-0.0279191
-0.0281268
-0.0194187
-0.0207869
-0.0222895
-0.0240064
-0.0261031
-0.0278846
-0.0280808
-0.0194107
-0.0207748
-0.0222727
-0.0239866
-0.0260787
-0.0278389
-0.0280122
-0.0194023
-0.0207602
-0.0222497
-0.0239548
-0.0259974
-0.0275985
-0.0277211
-0.0191024
-0.0203135
-0.0215863
-0.0229304
-0.0243307
-0.0253297
-0.0253668
-0.0190992
-0.0203087
-0.0215796
-0.0229215
-0.0243192
-0.0253152
-0.0253497
-0.0190951
-0.0203026
-0.0215711
-0.0229102
-0.0243043
-0.0252959
-0.0253264
-0.0190901
-0.0202951
-0.0215609
-0.0228966
-0.0242858
-0.0252707
-0.0252957
-0.0190842
-0.0202864
-0.021549
-0.022881
-0.0242648
-0.0252404
-0.0252576
-0.0190771
-0.0202758
-0.0215345
-0.0228627
-0.0242396
-0.0252002
-0.0252076
-0.0190693
-0.0202632
-0.0215159
-0.0228359
-0.0241866
-0.0251028
-0.0251214
-0.00680602
-0.00688928
-0.00752656
-0.00852489
-0.00959076
-0.0106511
-0.0116937
-0.00671446
-0.00678819
-0.00745746
-0.00848422
-0.00956316
-0.0106318
-0.0116804
-0.00663636
-0.00672113
-0.00740843
-0.00844922
-0.00953724
-0.0106127
-0.0116668
-0.00657579
-0.00666971
-0.00736822
-0.00841842
-0.00951365
-0.010595
-0.0116537
-0.0065271
-0.00662778
-0.0073342
-0.00839153
-0.00949267
-0.0105789
-0.0116417
-0.00648892
-0.00659456
-0.00730659
-0.00836919
-0.00947493
-0.0105651
-0.0116312
-0.00646011
-0.00656923
-0.00728516
-0.00835154
-0.00946071
-0.0105539
-0.0116226
-0.00808627
-0.00817176
-0.00867245
-0.00942272
-0.0102664
-0.0111487
-0.0120461
-0.00802359
-0.00810214
-0.00862414
-0.00939131
-0.0102446
-0.0111332
-0.0120352
-0.00796473
-0.00804964
-0.00858462
-0.00936245
-0.0102232
-0.0111175
-0.0120238
-0.00791742
-0.00800809
-0.0085513
-0.00933654
-0.0102033
-0.0111024
-0.0120126
-0.00787868
-0.00797384
-0.00852289
-0.00931372
-0.0101853
-0.0110886
-0.0120022
-0.00784767
-0.00794627
-0.00849955
-0.00929456
-0.01017
-0.0110765
-0.011993
-0.00782382
-0.00792493
-0.00848121
-0.00927926
-0.0101575
-0.0110666
-0.0119853
-0.00923328
-0.00926644
-0.00964593
-0.0102204
-0.0108948
-0.0116282
-0.0123953
-0.00918735
-0.00921722
-0.0096116
-0.0101965
-0.0108775
-0.0116157
-0.0123864
-0.00914391
-0.00917762
-0.0095809
-0.0101734
-0.0108602
-0.0116028
-0.012377
-0.00910769
-0.00914506
-0.00955412
-0.0101522
-0.0108438
-0.0115903
-0.0123676
-0.0090773
-0.00911768
-0.00953095
-0.0101333
-0.0108287
-0.0115786
-0.0123587
-0.00905247
-0.00909528
-0.00951166
-0.0101172
-0.0108157
-0.0115683
-0.0123508
-0.00903305
-0.00907768
-0.00949633
-0.0101043
-0.0108051
-0.0115598
-0.0123442
-0.0101826
-0.0101901
-0.0104754
-0.0109228
-0.0114663
-0.0120755
-0.012728
-0.0101532
-0.0101548
-0.0104508
-0.0109051
-0.0114531
-0.0120658
-0.0127209
-0.010122
-0.0101255
-0.0104275
-0.0108871
-0.0114394
-0.0120554
-0.0127133
-0.0100948
-0.0101005
-0.0104065
-0.0108702
-0.0114261
-0.0120452
-0.0127055
-0.0100713
-0.010079
-0.010388
-0.0108549
-0.0114137
-0.0120355
-0.0126981
-0.0100517
-0.0100611
-0.0103724
-0.0108417
-0.0114029
-0.0120268
-0.0126914
-0.0100361
-0.0100468
-0.0103598
-0.010831
-0.011394
-0.0120197
-0.0126858
-0.0109759
-0.010966
-0.0111821
-0.0115351
-0.0119761
-0.0124826
-0.0130357
-0.0109575
-0.0109409
-0.0111645
-0.0115222
-0.0119662
-0.0124751
-0.0130301
-0.0109357
-0.0109195
-0.0111472
-0.0115085
-0.0119555
-0.0124669
-0.013024
-0.0109156
-0.0109007
-0.011131
-0.0114952
-0.0119449
-0.0124586
-0.0130177
-0.0108977
-0.0108841
-0.0111165
-0.011483
-0.0119349
-0.0124507
-0.0130116
-0.0108825
-0.01087
-0.0111041
-0.0114724
-0.0119261
-0.0124436
-0.0130061
-0.0108701
-0.0108586
-0.0110939
-0.0114636
-0.0119188
-0.0124377
-0.0130014
-0.0116366
-0.0116171
-0.0117826
-0.012064
-0.012424
-0.0128458
-0.0133139
-0.0116254
-0.0115994
-0.01177
-0.0120545
-0.0124166
-0.0128401
-0.0133096
-0.0116105
-0.011584
-0.0117572
-0.0120442
-0.0124084
-0.0128337
-0.0133047
-0.0115959
-0.0115701
-0.011745
-0.012034
-0.0124001
-0.0128271
-0.0132996
-0.0115825
-0.0115574
-0.0117338
-0.0120244
-0.0123922
-0.0128207
-0.0132947
-0.0115708
-0.0115465
-0.011724
-0.012016
-0.0123851
-0.012815
-0.0132902
-0.0115611
-0.0115375
-0.0117159
-0.012009
-0.0123792
-0.0128101
-0.0132863
-0.0127146
-0.0137162
-0.0147051
-0.0156891
-0.0166766
-0.017675
-0.0127056
-0.0137106
-0.0147021
-0.0156884
-0.0166781
-0.0176788
-0.0126962
-0.0137045
-0.0146987
-0.0156873
-0.0166793
-0.0176823
-0.0126869
-0.0136983
-0.0146951
-0.015686
-0.0166801
-0.0176853
-0.0126782
-0.0136924
-0.0146916
-0.0156846
-0.0166807
-0.0176879
-0.0126705
-0.0136871
-0.0146883
-0.0156833
-0.0166811
-0.0176899
-0.0126642
-0.0136827
-0.0146856
-0.015682
-0.0166813
-0.0176915
-0.0129458
-0.0138427
-0.0147359
-0.0156268
-0.0165174
-0.0174086
-0.0129384
-0.0138379
-0.0147333
-0.0156262
-0.0165187
-0.0174118
-0.0129304
-0.0138327
-0.0147303
-0.0156252
-0.0165196
-0.0174147
-0.0129224
-0.0138273
-0.0147272
-0.0156241
-0.0165204
-0.0174174
-0.0129148
-0.0138221
-0.0147241
-0.0156228
-0.0165209
-0.0174196
-0.012908
-0.0138174
-0.0147212
-0.0156216
-0.0165212
-0.0174215
-0.0129024
-0.0138135
-0.0147188
-0.0156205
-0.0165214
-0.017423
-0.0131802
-0.0139734
-0.0147696
-0.0155655
-0.0163586
-0.0171452
-0.013174
-0.0139694
-0.0147674
-0.015565
-0.0163596
-0.0171479
-0.0131674
-0.013965
-0.0147649
-0.0155641
-0.0163604
-0.0171503
-0.0131606
-0.0139604
-0.0147622
-0.0155631
-0.016361
-0.0171526
-0.0131541
-0.013956
-0.0147595
-0.0155621
-0.0163615
-0.0171546
-0.0131483
-0.0139519
-0.014757
-0.015561
-0.0163618
-0.0171562
-0.0131433
-0.0139484
-0.0147549
-0.0155601
-0.016362
-0.0171575
-0.0134073
-0.014102
-0.0148042
-0.0155076
-0.0162066
-0.0168948
-0.0134023
-0.0140987
-0.0148024
-0.0155071
-0.0162074
-0.016897
-0.0133968
-0.0140951
-0.0148003
-0.0155064
-0.016208
-0.016899
-0.0133912
-0.0140913
-0.014798
-0.0155055
-0.0162086
-0.0169009
-0.0133857
-0.0140875
-0.0147957
-0.0155046
-0.0162089
-0.0169026
-0.0133808
-0.014084
-0.0147936
-0.0155037
-0.0162092
-0.016904
-0.0133765
-0.014081
-0.0147917
-0.0155029
-0.0162094
-0.0169052
-0.0136201
-0.014224
-0.0148381
-0.0154544
-0.0160655
-0.0166635
-0.0136161
-0.0142214
-0.0148366
-0.015454
-0.0160662
-0.0166652
-0.0136117
-0.0142184
-0.0148349
-0.0154534
-0.0160667
-0.0166669
-0.0136071
-0.0142152
-0.014833
-0.0154527
-0.0160671
-0.0166685
-0.0136026
-0.0142121
-0.0148311
-0.0154519
-0.0160674
-0.0166699
-0.0135984
-0.0142091
-0.0148293
-0.0154512
-0.0160677
-0.0166711
-0.0135948
-0.0142066
-0.0148277
-0.0154505
-0.0160678
-0.0166721
-0.0138146
-0.0143366
-0.0148702
-0.0154067
-0.0159377
-0.0164546
-0.0138115
-0.0143345
-0.014869
-0.0154063
-0.0159382
-0.0164559
-0.013808
-0.0143321
-0.0148676
-0.0154058
-0.0159386
-0.0164573
-0.0138042
-0.0143295
-0.0148661
-0.0154052
-0.0159389
-0.0164585
-0.0138005
-0.0143269
-0.0148645
-0.0154046
-0.0159392
-0.0164597
-0.0137971
-0.0143245
-0.014863
-0.015404
-0.0159394
-0.0164607
-0.0137941
-0.0143224
-0.0148616
-0.0154034
-0.0159395
-0.0164615
-0.0186888
-0.0197176
-0.0207517
-0.0217715
-0.0227075
-0.0232594
-0.0231936
-0.0186954
-0.0197278
-0.0207666
-0.0217939
-0.0227502
-0.0233287
-0.023243
-0.0187015
-0.0197368
-0.0207793
-0.0218114
-0.0227762
-0.0233674
-0.0232871
-0.0187068
-0.0197448
-0.0207903
-0.0218262
-0.0227964
-0.0233947
-0.0233198
-0.0187114
-0.0197517
-0.0207998
-0.0218389
-0.0228132
-0.0234165
-0.0233456
-0.0187152
-0.0197574
-0.0208077
-0.0218494
-0.0228268
-0.0234334
-0.0233657
-0.0187182
-0.019762
-0.020814
-0.0218576
-0.0228372
-0.0234462
-0.0233807
-0.0182981
-0.0191786
-0.0200346
-0.0208396
-0.0215408
-0.0219834
-0.0219834
-0.0183036
-0.0191871
-0.020047
-0.0208582
-0.0215722
-0.0220326
-0.02202
-0.0183088
-0.0191949
-0.0200581
-0.0208739
-0.021595
-0.0220649
-0.022055
-0.0183134
-0.0192019
-0.0200679
-0.0208872
-0.021613
-0.0220883
-0.0220815
-0.0183176
-0.0192081
-0.0200765
-0.0208986
-0.0216278
-0.0221068
-0.0221026
-0.018321
-0.0192133
-0.0200837
-0.020908
-0.0216397
-0.0221213
-0.0221192
-0.0183238
-0.0192174
-0.0200893
-0.0209154
-0.0216489
-0.0221324
-0.0221319
-0.0179191
-0.0186698
-0.0193798
-0.0200237
-0.020562
-0.0209011
-0.0208882
-0.0179237
-0.0186768
-0.0193902
-0.0200387
-0.0205851
-0.020937
-0.0209163
-0.0179281
-0.0186834
-0.0193996
-0.0200519
-0.0206037
-0.0209623
-0.0209431
-0.0179321
-0.0186894
-0.0194081
-0.0200634
-0.0206189
-0.0209813
-0.020964
-0.0179357
-0.0186949
-0.0194155
-0.0200732
-0.0206314
-0.0209966
-0.020981
-0.0179388
-0.0186994
-0.0194218
-0.0200814
-0.0206416
-0.0210087
-0.0209945
-0.0179412
-0.0187031
-0.0194268
-0.0200878
-0.0206495
-0.021018
-0.021005
-0.0175637
-0.0182015
-0.0187914
-0.0193112
-0.0197323
-0.01999
-0.0199698
-0.0175674
-0.0182071
-0.0187994
-0.0193225
-0.019749
-0.0200158
-0.0199876
-0.017571
-0.0182125
-0.0188071
-0.0193332
-0.0197635
-0.0200347
-0.0200067
-0.0175744
-0.0182176
-0.0188142
-0.0193426
-0.0197757
-0.0200496
-0.0200226
-0.0175775
-0.0182222
-0.0188205
-0.0193509
-0.019786
-0.0200618
-0.0200359
-0.0175801
-0.0182262
-0.0188259
-0.0193577
-0.0197944
-0.0200717
-0.0200468
-0.0175823
-0.0182293
-0.0188302
-0.0193632
-0.019801
-0.0200794
-0.0200553
-0.0172388
-0.0177795
-0.0182704
-0.0186932
-0.0190269
-0.0192243
-0.0191982
-0.0172418
-0.0177839
-0.0182765
-0.0187015
-0.0190389
-0.0192424
-0.0192073
-0.0172447
-0.0177882
-0.0182826
-0.0187098
-0.0190498
-0.019256
-0.0192201
-0.0172475
-0.0177924
-0.0182883
-0.0187173
-0.0190593
-0.0192673
-0.0192318
-0.01725
-0.0177962
-0.0182935
-0.018724
-0.0190675
-0.0192768
-0.019242
-0.0172523
-0.0177995
-0.018298
-0.0187296
-0.0190743
-0.0192847
-0.0192506
-0.0172541
-0.0178022
-0.0183016
-0.0187342
-0.0190797
-0.0192909
-0.0192574
-0.0169476
-0.0174055
-0.0178149
-0.0181611
-0.0184282
-0.0185806
-0.0185512
-0.0169499
-0.0174089
-0.0178195
-0.0181672
-0.0184368
-0.0185932
-0.0185549
-0.0169522
-0.0174123
-0.0178243
-0.0181734
-0.0184448
-0.018603
-0.0185635
-0.0169545
-0.0174156
-0.0178288
-0.0181793
-0.018452
-0.0186113
-0.018572
-0.0169566
-0.0174187
-0.017833
-0.0181845
-0.0184584
-0.0186186
-0.0185796
-0.0169584
-0.0174214
-0.0178366
-0.0181891
-0.0184638
-0.0186247
-0.0185862
-0.0169599
-0.0174237
-0.0178395
-0.0181928
-0.0184682
-0.0186297
-0.0185916
-0.00643954
-0.00655098
-0.00726953
-0.0083385
-0.00945009
-0.0105454
-0.011616
-0.00642634
-0.00653919
-0.00725934
-0.00832992
-0.00944306
-0.0105398
-0.0116117
-0.00641991
-0.00653342
-0.00725432
-0.00832568
-0.00943957
-0.010537
-0.0116095
-0.00641994
-0.00653345
-0.00725436
-0.00832571
-0.00943959
-0.010537
-0.0116095
-0.00642644
-0.00653928
-0.00725943
-0.00833001
-0.00944314
-0.0105398
-0.0116117
-0.0064397
-0.00655114
-0.00726968
-0.00833864
-0.00945023
-0.0105455
-0.0116161
-0.00780653
-0.00790936
-0.0084677
-0.00926787
-0.0101482
-0.0110591
-0.0119795
-0.00779531
-0.0078992
-0.00845883
-0.00926033
-0.0101419
-0.0110541
-0.0119756
-0.0077898
-0.0078942
-0.00845445
-0.00925659
-0.0101388
-0.0110516
-0.0119736
-0.00778983
-0.00789423
-0.00845447
-0.00925661
-0.0101388
-0.0110516
-0.0119736
-0.00779539
-0.00789929
-0.00845891
-0.00926041
-0.010142
-0.0110542
-0.0119756
-0.00780667
-0.0079095
-0.00846784
-0.009268
-0.0101483
-0.0110592
-0.0119796
-0.00901878
-0.0090647
-0.00948493
-0.0100946
-0.010797
-0.0115533
-0.0123391
-0.00900943
-0.00905616
-0.00947739
-0.0100881
-0.0107916
-0.0115489
-0.0123357
-0.00900481
-0.00905193
-0.00947365
-0.0100849
-0.0107889
-0.0115467
-0.0123339
-0.00900484
-0.00905196
-0.00947367
-0.0100849
-0.010789
-0.0115467
-0.012334
-0.0090095
-0.00905623
-0.00947746
-0.0100882
-0.0107917
-0.0115489
-0.0123357
-0.00901891
-0.00906482
-0.00948505
-0.0100947
-0.0107971
-0.0115534
-0.0123392
-0.0100245
-0.0100362
-0.0103504
-0.0108228
-0.0113872
-0.0120141
-0.0126814
-0.0100168
-0.0100291
-0.0103441
-0.0108174
-0.0113826
-0.0120104
-0.0126785
-0.010013
-0.0100256
-0.010341
-0.0108147
-0.0113803
-0.0120085
-0.012677
-0.010013
-0.0100256
-0.010341
-0.0108147
-0.0113804
-0.0120085
-0.012677
-0.0100169
-0.0100292
-0.0103441
-0.0108174
-0.0113827
-0.0120104
-0.0126785
-0.0100246
-0.0100363
-0.0103505
-0.0108229
-0.0113873
-0.0120142
-0.0126815
-0.0108608
-0.01085
-0.0110862
-0.0114569
-0.0119132
-0.012433
-0.0129977
-0.0108546
-0.0108443
-0.0110811
-0.0114524
-0.0119094
-0.0124299
-0.0129952
-0.0108515
-0.0108414
-0.0110785
-0.0114502
-0.0119075
-0.0124283
-0.0129939
-0.0108515
-0.0108414
-0.0110785
-0.0114502
-0.0119075
-0.0124283
-0.0129939
-0.0108546
-0.0108443
-0.0110811
-0.0114525
-0.0119094
-0.0124299
-0.0129952
-0.0108609
-0.0108501
-0.0110863
-0.011457
-0.0119133
-0.0124331
-0.0129977
-0.0115537
-0.0115306
-0.0117097
-0.0120036
-0.0123746
-0.0128063
-0.0132833
-0.0115488
-0.011526
-0.0117056
-0.0119999
-0.0123714
-0.0128037
-0.0132812
-0.0115463
-0.0115237
-0.0117035
-0.0119981
-0.0123699
-0.0128024
-0.0132801
-0.0115463
-0.0115237
-0.0117035
-0.0119981
-0.0123699
-0.0128024
-0.0132801
-0.0115488
-0.0115261
-0.0117056
-0.0119999
-0.0123715
-0.0128038
-0.0132812
-0.0115538
-0.0115307
-0.0117098
-0.0120036
-0.0123746
-0.0128064
-0.0132833
-0.0187204
-0.0197653
-0.0208186
-0.0218636
-0.0228447
-0.0234554
-0.0233914
-0.0187219
-0.0197675
-0.0208217
-0.0218675
-0.0228497
-0.0234613
-0.0233982
-0.0187226
-0.0197687
-0.0208232
-0.0218695
-0.0228521
-0.0234642
-0.0234015
-0.0187226
-0.0197686
-0.0208232
-0.0218695
-0.0228521
-0.0234642
-0.0234015
-0.0187219
-0.0197675
-0.0208216
-0.0218675
-0.0228496
-0.0234613
-0.0233982
-0.0187204
-0.0197653
-0.0208186
-0.0218635
-0.0228447
-0.0234554
-0.0233913
-0.0183258
-0.0192205
-0.0200936
-0.0209208
-0.0216556
-0.0221404
-0.022141
-0.0183272
-0.0192226
-0.0200963
-0.0209244
-0.02166
-0.0221455
-0.0221468
-0.0183279
-0.0192236
-0.0200977
-0.0209261
-0.0216621
-0.0221481
-0.0221497
-0.0183279
-0.0192236
-0.0200977
-0.0209261
-0.0216621
-0.0221481
-0.0221497
-0.0183272
-0.0192226
-0.0200963
-0.0209244
-0.0216599
-0.0221455
-0.0221468
-0.0183258
-0.0192205
-0.0200935
-0.0209208
-0.0216555
-0.0221403
-0.0221409
-0.0179431
-0.0187059
-0.0194305
-0.0200925
-0.0206553
-0.0210248
-0.0210126
-0.0179443
-0.0187077
-0.019433
-0.0200957
-0.0206591
-0.0210292
-0.0210175
-0.0179449
-0.0187086
-0.0194342
-0.0200972
-0.0206609
-0.0210314
-0.02102
-0.0179449
-0.0187086
-0.0194342
-0.0200972
-0.0206609
-0.0210313
-0.02102
-0.0179443
-0.0187077
-0.019433
-0.0200957
-0.020659
-0.0210292
-0.0210175
-0.0179431
-0.0187059
-0.0194305
-0.0200925
-0.0206552
-0.0210247
-0.0210126
-0.0175839
-0.0182317
-0.0188334
-0.0193672
-0.0198059
-0.020085
-0.0200616
-0.017585
-0.0182333
-0.0188355
-0.0193699
-0.0198091
-0.0200887
-0.0200657
-0.0175855
-0.0182341
-0.0188366
-0.0193713
-0.0198107
-0.0200906
-0.0200677
-0.0175855
-0.0182341
-0.0188366
-0.0193713
-0.0198107
-0.0200906
-0.0200677
-0.017585
-0.0182333
-0.0188355
-0.0193699
-0.0198091
-0.0200887
-0.0200657
-0.0175839
-0.0182317
-0.0188334
-0.0193672
-0.0198059
-0.020085
-0.0200616
-0.0172554
-0.0178042
-0.0183043
-0.0187376
-0.0190838
-0.0192955
-0.0192625
-0.0172564
-0.0178056
-0.0183061
-0.0187398
-0.0190864
-0.0192986
-0.0192658
-0.0172568
-0.0178063
-0.018307
-0.0187409
-0.0190878
-0.0193001
-0.0192675
-0.0172568
-0.0178063
-0.018307
-0.0187409
-0.0190878
-0.0193001
-0.0192675
-0.0172564
-0.0178056
-0.0183061
-0.0187398
-0.0190864
-0.0192986
-0.0192658
-0.0172554
-0.0178042
-0.0183043
-0.0187375
-0.0190837
-0.0192955
-0.0192625
-0.0169611
-0.0174254
-0.0178418
-0.0181955
-0.0184715
-0.0186334
-0.0185956
-0.0169618
-0.0174265
-0.0178433
-0.0181974
-0.0184737
-0.0186359
-0.0185983
-0.0169622
-0.0174271
-0.017844
-0.0181983
-0.0184748
-0.0186371
-0.0185997
-0.0169622
-0.0174271
-0.017844
-0.0181983
-0.0184748
-0.0186371
-0.0185997
-0.0169618
-0.0174265
-0.0178433
-0.0181974
-0.0184737
-0.0186359
-0.0185983
-0.0169611
-0.0174254
-0.0178418
-0.0181955
-0.0184715
-0.0186334
-0.0185956
-0.00646033
-0.00656944
-0.00728537
-0.00835174
-0.0094609
-0.010554
-0.0116227
-0.00648919
-0.00659483
-0.00730686
-0.00836944
-0.00947516
-0.0105653
-0.0116314
-0.00652743
-0.0066281
-0.00733451
-0.00839183
-0.00949293
-0.0105791
-0.0116419
-0.00657615
-0.00667007
-0.00736857
-0.00841875
-0.00951396
-0.0105952
-0.0116539
-0.00663676
-0.00672153
-0.00740881
-0.00844958
-0.00953756
-0.010613
-0.011667
-0.00671488
-0.00678861
-0.00745786
-0.0084846
-0.0095635
-0.0106321
-0.0116807
-0.00680647
-0.00688973
-0.00752698
-0.00852528
-0.00959112
-0.0106514
-0.011694
-0.00782402
-0.00792512
-0.00848141
-0.00927944
-0.0101577
-0.0110668
-0.0119855
-0.00784792
-0.00794652
-0.00849979
-0.00929478
-0.0101702
-0.0110767
-0.0119931
-0.00787898
-0.00797413
-0.00852317
-0.00931399
-0.0101856
-0.0110888
-0.0120024
-0.00791776
-0.00800842
-0.00855162
-0.00933685
-0.0102036
-0.0111027
-0.0120129
-0.0079651
-0.00805001
-0.00858498
-0.00936278
-0.0102235
-0.0111178
-0.012024
-0.00802399
-0.00810254
-0.00862452
-0.00939167
-0.0102449
-0.0111335
-0.0120354
-0.0080867
-0.00817217
-0.00867284
-0.00942308
-0.0102668
-0.011149