/*--------------------------------*- C++ -*----------------------------------*\
  =========                 |
  \\      /  F ield         | OpenFOAM: The Open Source CFD Toolbox
   \\    /   O peration     | Website:  https://openfoam.org
    \\  /    A nd           | Version:  7
     \\/     M anipulation  |
\*---------------------------------------------------------------------------*/
FoamFile
{
    version     2.0;
    format      ascii;
    class       volScalarField;
    location    "1.5";
    object      p;
}
// * * * * * * * * * * * * * * * * * * * * * * * * * * * * * * * * * * * * * //

dimensions      [0 2 -2 0 0 0 0];

internalField   nonuniform List<scalar> 
7784
(
1.90243e-10
-0.000362758
-0.00120836
-0.00253825
-0.00354272
-0.00427945
-0.00490676
0.000695782
0.000137766
-0.00108118
-0.00250099
-0.00350839
-0.00425474
-0.00489181
0.000781682
0.000185899
-0.00105592
-0.00247597
-0.00348452
-0.0042368
-0.0048793
0.000835593
0.000227788
-0.00102702
-0.00245304
-0.00346596
-0.00422249
-0.00486863
0.000880262
0.000264234
-0.00100084
-0.00243334
-0.00345041
-0.00421031
-0.00485932
0.000911309
0.000290008
-0.000980916
-0.00241762
-0.00343779
-0.00420027
-0.00485152
0.000933049
0.000308534
-0.000965928
-0.00240544
-0.00342791
-0.00419234
-0.00484527
-0.000969314
-0.00136277
-0.00221903
-0.0031504
-0.00388026
-0.00448911
-0.00504088
-0.000691249
-0.00115717
-0.00214081
-0.00311196
-0.0038493
-0.00446736
-0.00502689
-0.000619727
-0.00110956
-0.00210915
-0.00308343
-0.00382508
-0.00444947
-0.00501425
-0.000564115
-0.00106573
-0.002078
-0.00305884
-0.00380555
-0.00443463
-0.00500329
-0.000517911
-0.0010281
-0.00205049
-0.0030378
-0.00378903
-0.00442189
-0.00499366
-0.000484744
-0.00100058
-0.00202921
-0.00302099
-0.00377562
-0.00441137
-0.00498556
-0.00046127
-0.000980676
-0.0020132
-0.00300805
-0.00376517
-0.00440306
-0.00497908
-0.00240486
-0.0025796
-0.00306048
-0.00365247
-0.00419667
-0.00470083
-0.0051801
-0.00229551
-0.00248025
-0.00300067
-0.00361583
-0.00416958
-0.00468162
-0.0051671
-0.00223085
-0.00242949
-0.00296465
-0.00358774
-0.00414743
-0.00466518
-0.0051553
-0.00218115
-0.00238917
-0.00293446
-0.0035642
-0.00412901
-0.00465117
-0.00514491
-0.0021414
-0.00235609
-0.00290879
-0.0035441
-0.00411322
-0.00463898
-0.00513568
-0.00211158
-0.00233093
-0.00288859
-0.00352789
-0.00410029
-0.00462882
-0.00512786
-0.00208979
-0.00231228
-0.00287325
-0.00351535
-0.00409015
-0.00462076
-0.00512157
-0.00546864
-0.00598685
-0.00648177
-0.00697066
-0.00746799
-0.00799109
-0.00545926
-0.00598093
-0.00647838
-0.00696928
-0.00746842
-0.00799344
-0.00545058
-0.0059751
-0.00647479
-0.00696751
-0.00746824
-0.00799475
-0.00544282
-0.00596968
-0.00647124
-0.00696551
-0.00746756
-0.00799521
-0.00543589
-0.0059647
-0.00646786
-0.00696346
-0.00746664
-0.00799524
-0.00542997
-0.00596035
-0.00646483
-0.00696153
-0.00746564
-0.00799504
-0.00542516
-0.00595676
-0.00646228
-0.00695986
-0.00746471
-0.00799475
-0.00555092
-0.00603199
-0.00649729
-0.00695845
-0.00742753
-0.00791605
-0.00554184
-0.00602624
-0.00649407
-0.00695732
-0.0074283
-0.00791878
-0.00553305
-0.00602037
-0.0064905
-0.00695566
-0.00742831
-0.00792037
-0.00552513
-0.00601488
-0.00648695
-0.00695372
-0.00742775
-0.00792106
-0.00551802
-0.00600981
-0.00648356
-0.00695172
-0.00742694
-0.0079213
-0.00551193
-0.00600538
-0.00648051
-0.00694983
-0.00742605
-0.00792129
-0.00550698
-0.00600172
-0.00647794
-0.00694818
-0.00742521
-0.00792116
-0.00563742
-0.00607814
-0.00650929
-0.00693807
-0.00737205
-0.00781819
-0.00562874
-0.00607257
-0.00650614
-0.00693696
-0.00737276
-0.00782078
-0.00562047
-0.00606703
-0.00650277
-0.00693541
-0.00737283
-0.0078224
-0.00561295
-0.0060618
-0.00649942
-0.00693362
-0.00737241
-0.00782324
-0.00560613
-0.00605695
-0.00649619
-0.00693177
-0.00737175
-0.00782368
-0.00560025
-0.00605269
-0.00649328
-0.00693001
-0.007371
-0.00782384
-0.00559546
-0.00604916
-0.00649082
-0.00692848
-0.00737028
-0.00782385
-0.00855962
-0.00919744
-0.00993349
-0.010833
-0.0119711
-0.0129077
-0.0128407
-0.00856438
-0.00920611
-0.00994664
-0.0108473
-0.0120347
-0.0131902
-0.0132412
-0.00856719
-0.00921062
-0.00995305
-0.0108538
-0.0120393
-0.0132021
-0.0132674
-0.00856865
-0.00921295
-0.0099561
-0.0108571
-0.0120428
-0.0132115
-0.0132851
-0.0085695
-0.0092145
-0.00995826
-0.0108599
-0.0120474
-0.0132214
-0.0133007
-0.00856998
-0.00921559
-0.00995994
-0.0108623
-0.0120512
-0.013228
-0.0133108
-0.00857026
-0.00921638
-0.00996125
-0.0108643
-0.0120542
-0.0132327
-0.0133175
-0.00843777
-0.00900744
-0.00963894
-0.0103708
-0.0112632
-0.0120212
-0.0120675
-0.00844286
-0.00901597
-0.00965102
-0.0103826
-0.0112973
-0.0121535
-0.0122494
-0.00844605
-0.00902097
-0.00965785
-0.0103891
-0.0113014
-0.012165
-0.0122758
-0.0084479
-0.00902395
-0.00966193
-0.010394
-0.0113076
-0.0121778
-0.012297
-0.00844912
-0.00902612
-0.00966512
-0.0103984
-0.0113145
-0.0121902
-0.0123152
-0.00844993
-0.00902773
-0.0096676
-0.010402
-0.0113199
-0.0121989
-0.0123276
-0.00845045
-0.00902891
-0.0096695
-0.0104048
-0.011324
-0.0122051
-0.0123359
-0.00828354
-0.00877327
-0.00928775
-0.00983293
-0.0104101
-0.0108277
-0.0108252
-0.00828827
-0.00878077
-0.00929809
-0.00984465
-0.0104333
-0.0108825
-0.0108761
-0.0082915
-0.00878578
-0.00930495
-0.00985243
-0.0104425
-0.0108997
-0.0109014
-0.00829358
-0.00878913
-0.00930965
-0.00985846
-0.0104506
-0.0109134
-0.0109212
-0.00829506
-0.0087917
-0.00931339
-0.00986362
-0.0104581
-0.010925
-0.010937
-0.0082961
-0.00879363
-0.00931631
-0.00986773
-0.0104639
-0.0109336
-0.0109485
-0.00829681
-0.00879505
-0.00931852
-0.00987089
-0.0104683
-0.0109398
-0.0109567
0.000948126
0.000321603
-0.000955109
-0.00239653
-0.00342062
-0.00418644
-0.00484058
0.00095768
0.000329969
-0.000948091
-0.00239068
-0.00341581
-0.00418254
-0.00483745
0.000962317
0.000334052
-0.000944641
-0.0023878
-0.00341343
-0.00418059
-0.00483589
0.000962313
0.000334049
-0.000944644
-0.0023878
-0.00341343
-0.00418059
-0.00483589
0.000957671
0.00032996
-0.0009481
-0.00239069
-0.00341582
-0.00418254
-0.00483745
0.00094811
0.000321588
-0.000955124
-0.00239654
-0.00342063
-0.00418645
-0.00484058
-0.000445069
-0.000966721
-0.00200172
-0.00299863
-0.0037575
-0.0043969
-0.00497422
-0.000434867
-0.000957847
-0.00199431
-0.00299248
-0.00375246
-0.00439283
-0.00497099
-0.000429937
-0.000953534
-0.00199068
-0.00298946
-0.00374996
-0.00439081
-0.00496937
-0.00042994
-0.000953537
-0.00199069
-0.00298946
-0.00374997
-0.00439081
-0.00496937
-0.000434876
-0.000957856
-0.00199432
-0.00299249
-0.00375247
-0.00439284
-0.00497099
-0.000445084
-0.000966737
-0.00200173
-0.00299864
-0.00375751
-0.00439691
-0.00497422
-0.00207451
-0.00229905
-0.00286218
-0.00350619
-0.00408267
-0.00461475
-0.00511683
-0.00206479
-0.00229057
-0.00285501
-0.00350021
-0.00407775
-0.00461077
-0.00511368
-0.00206007
-0.00228643
-0.00285149
-0.00349725
-0.00407531
-0.00460879
-0.0051121
-0.00206008
-0.00228643
-0.0028515
-0.00349725
-0.00407531
-0.00460879
-0.0051121
-0.0020648
-0.00229058
-0.00285502
-0.00350021
-0.00407776
-0.00461078
-0.00511368
-0.00207452
-0.00229906
-0.00286219
-0.0035062
-0.00408268
-0.00461476
-0.00511684
-0.00542152
-0.00595401
-0.00646029
-0.00695853
-0.00746394
-0.00799447
-0.00541907
-0.00595215
-0.00645894
-0.00695762
-0.0074634
-0.00799425
-0.00541785
-0.00595122
-0.00645826
-0.00695715
-0.00746312
-0.00799414
-0.00541785
-0.00595122
-0.00645826
-0.00695715
-0.00746312
-0.00799413
-0.00541907
-0.00595215
-0.00645894
-0.00695761
-0.0074634
-0.00799425
-0.00542152
-0.00595401
-0.00646029
-0.00695853
-0.00746394
-0.00799446
-0.00550324
-0.00599892
-0.00647594
-0.00694687
-0.0074245
-0.00792099
-0.00550073
-0.00599703
-0.00647458
-0.00694597
-0.007424
-0.00792085
-0.00549947
-0.00599607
-0.00647389
-0.00694551
-0.00742374
-0.00792076
-0.00549947
-0.00599607
-0.00647389
-0.00694551
-0.00742374
-0.00792076
-0.00550073
-0.00599703
-0.00647458
-0.00694597
-0.00742399
-0.00792084
-0.00550324
-0.00599892
-0.00647594
-0.00694687
-0.00742449
-0.00792098
-0.00559181
-0.00604645
-0.00648891
-0.00692725
-0.00736966
-0.00782378
-0.00558937
-0.00604461
-0.0064876
-0.0069264
-0.00736922
-0.00782371
-0.00558814
-0.00604369
-0.00648694
-0.00692597
-0.00736898
-0.00782367
-0.00558814
-0.00604369
-0.00648693
-0.00692597
-0.00736898
-0.00782367
-0.00558937
-0.00604461
-0.0064876
-0.0069264
-0.00736921
-0.00782371
-0.00559181
-0.00604644
-0.0064889
-0.00692725
-0.00736965
-0.00782377
-0.00857041
-0.00921695
-0.00996225
-0.0108658
-0.0120565
-0.0132361
-0.0133222
-0.00857049
-0.00921731
-0.00996293
-0.0108668
-0.012058
-0.0132383
-0.0133251
-0.00857053
-0.00921749
-0.00996326
-0.0108674
-0.0120588
-0.0132394
-0.0133265
-0.00857052
-0.00921749
-0.00996326
-0.0108674
-0.0120588
-0.0132394
-0.0133265
-0.00857048
-0.0092173
-0.00996291
-0.0108668
-0.012058
-0.0132383
-0.0133251
-0.0085704
-0.00921693
-0.00996223
-0.0108658
-0.0120564
-0.0132361
-0.0133221
-0.00845078
-0.00902974
-0.00967089
-0.0104068
-0.011327
-0.0122094
-0.0123416
-0.00845097
-0.00903027
-0.0096718
-0.0104082
-0.011329
-0.0122121
-0.0123451
-0.00845106
-0.00903054
-0.00967226
-0.0104089
-0.0113299
-0.0122134
-0.0123468
-0.00845106
-0.00903053
-0.00967225
-0.0104089
-0.0113299
-0.0122134
-0.0123468
-0.00845096
-0.00903027
-0.00967179
-0.0104082
-0.0113289
-0.0122121
-0.0123451
-0.00845077
-0.00902972
-0.00967087
-0.0104068
-0.011327
-0.0122093
-0.0123416
-0.00829728
-0.00879606
-0.00932012
-0.0098732
-0.0104715
-0.0109442
-0.0109624
-0.00829756
-0.00879671
-0.00932117
-0.0098747
-0.0104736
-0.0109469
-0.0109659
-0.00829769
-0.00879702
-0.00932168
-0.00987544
-0.0104746
-0.0109483
-0.0109676
-0.00829769
-0.00879702
-0.00932168
-0.00987544
-0.0104746
-0.0109483
-0.0109676
-0.00829755
-0.0087967
-0.00932116
-0.00987469
-0.0104736
-0.0109469
-0.0109659
-0.00829726
-0.00879605
-0.00932011
-0.00987318
-0.0104715
-0.0109441
-0.0109623
0.000933028
0.000308513
-0.000965947
-0.00240546
-0.00342793
-0.00419235
-0.00484527
0.000911284
0.000289984
-0.000980939
-0.00241764
-0.00343781
-0.00420029
-0.00485152
0.000880235
0.000264207
-0.00100087
-0.00243337
-0.00345043
-0.00421032
-0.00485933
0.000835566
0.00022776
-0.00102704
-0.00245307
-0.00346598
-0.0042225
-0.00486864
0.000781657
0.000185872
-0.00105595
-0.002476
-0.00348455
-0.00423682
-0.00487931
0.000695758
0.000137738
-0.00108121
-0.00250102
-0.00350841
-0.00425476
-0.00489183
-3.80744e-08
-0.000362797
-0.0012084
-0.00253829
-0.00354275
-0.00427948
-0.00490677
-0.00046129
-0.000980696
-0.00201322
-0.00300806
-0.00376519
-0.00440307
-0.00497908
-0.000484768
-0.0010006
-0.00202923
-0.00302101
-0.00377564
-0.00441138
-0.00498557
-0.000517938
-0.00102812
-0.00205052
-0.00303783
-0.00378905
-0.0044219
-0.00499367
-0.000564141
-0.00106576
-0.00207803
-0.00305887
-0.00380557
-0.00443465
-0.0050033
-0.00061975
-0.00110958
-0.00210918
-0.00308345
-0.0038251
-0.00444948
-0.00501426
-0.000691272
-0.0011572
-0.00214084
-0.00311198
-0.00384932
-0.00446738
-0.00502691
-0.000969344
-0.0013628
-0.00221907
-0.00315044
-0.00388029
-0.00448913
-0.00504089
-0.00208981
-0.0023123
-0.00287326
-0.00351537
-0.00409016
-0.00462077
-0.00512157
-0.0021116
-0.00233096
-0.00288861
-0.00352791
-0.00410031
-0.00462883
-0.00512787
-0.00214142
-0.00235611
-0.00290881
-0.00354412
-0.00411324
-0.00463899
-0.00513569
-0.00218118
-0.0023892
-0.00293448
-0.00356422
-0.00412903
-0.00465119
-0.00514492
-0.00223088
-0.00242951
-0.00296468
-0.00358776
-0.00414745
-0.0046652
-0.00515532
-0.00229553
-0.00248028
-0.00300069
-0.00361586
-0.0041696
-0.00468164
-0.00516711
-0.00240489
-0.00257963
-0.00306051
-0.0036525
-0.00419669
-0.00470085
-0.00518011
-0.00542516
-0.00595676
-0.00646227
-0.00695985
-0.0074647
-0.00799473
-0.00542997
-0.00596035
-0.00646482
-0.00696152
-0.00746563
-0.00799502
-0.0054359
-0.00596469
-0.00646785
-0.00696345
-0.00746662
-0.00799521
-0.00544283
-0.00596968
-0.00647123
-0.0069655
-0.00746754
-0.00799518
-0.00545058
-0.0059751
-0.00647478
-0.00696749
-0.00746822
-0.00799472
-0.00545926
-0.00598092
-0.00647837
-0.00696926
-0.0074684
-0.00799341
-0.00546865
-0.00598685
-0.00648176
-0.00697064
-0.00746797
-0.00799106
-0.00550699
-0.00600172
-0.00647793
-0.00694817
-0.0074252
-0.00792114
-0.00551194
-0.00600538
-0.0064805
-0.00694982
-0.00742604
-0.00792127
-0.00551803
-0.00600981
-0.00648355
-0.0069517
-0.00742693
-0.00792128
-0.00552514
-0.00601487
-0.00648695
-0.00695371
-0.00742773
-0.00792103
-0.00553305
-0.00602037
-0.00649049
-0.00695564
-0.00742828
-0.00792034
-0.00554184
-0.00602624
-0.00649406
-0.00695731
-0.00742828
-0.00791876
-0.00555093
-0.00603199
-0.00649729
-0.00695843
-0.0074275
-0.00791602
-0.00559546
-0.00604916
-0.00649082
-0.00692847
-0.00737026
-0.00782383
-0.00560026
-0.00605269
-0.00649327
-0.00693
-0.00737099
-0.00782382
-0.00560613
-0.00605695
-0.00649618
-0.00693176
-0.00737174
-0.00782365
-0.00561295
-0.0060618
-0.00649941
-0.00693361
-0.00737239
-0.00782322
-0.00562047
-0.00606702
-0.00650276
-0.0069354
-0.00737281
-0.00782237
-0.00562874
-0.00607257
-0.00650613
-0.00693694
-0.00737274
-0.00782075
-0.00563743
-0.00607814
-0.00650929
-0.00693806
-0.00737203
-0.00781816
-0.00857024
-0.00921636
-0.00996123
-0.0108642
-0.0120542
-0.0132327
-0.0133175
-0.00856996
-0.00921556
-0.00995991
-0.0108623
-0.0120512
-0.013228
-0.0133107
-0.00856947
-0.00921447
-0.00995822
-0.0108599
-0.0120474
-0.0132213
-0.0133007
-0.00856862
-0.00921292
-0.00995606
-0.010857
-0.0120428
-0.0132114
-0.013285
-0.00856716
-0.00921058
-0.009953
-0.0108537
-0.0120392
-0.013202
-0.0132673
-0.00856435
-0.00920606
-0.00994659
-0.0108473
-0.0120347
-0.0131902
-0.0132411
-0.00855958
-0.0091974
-0.00993344
-0.0108329
-0.011971
-0.0129076
-0.0128406
-0.00845043
-0.00902889
-0.00966948
-0.0104047
-0.011324
-0.0122051
-0.0123359
-0.0084499
-0.0090277
-0.00966758
-0.0104019
-0.0113199
-0.0121989
-0.0123275
-0.00844909
-0.00902609
-0.00966508
-0.0103983
-0.0113145
-0.0121902
-0.0123152
-0.00844787
-0.00902391
-0.00966189
-0.0103939
-0.0113076
-0.0121777
-0.0122969
-0.00844602
-0.00902093
-0.0096578
-0.010389
-0.0113014
-0.0121649
-0.0122758
-0.00844283
-0.00901593
-0.00965097
-0.0103825
-0.0112972
-0.0121534
-0.0122493
-0.00843773
-0.0090074
-0.00963889
-0.0103708
-0.0112632
-0.0120211
-0.0120674
-0.00829679
-0.00879504
-0.0093185
-0.00987087
-0.0104683
-0.0109398
-0.0109567
-0.00829608
-0.00879361
-0.00931628
-0.0098677
-0.0104639
-0.0109335
-0.0109485
-0.00829503
-0.00879167
-0.00931336
-0.00986359
-0.010458
-0.010925
-0.010937
-0.00829355
-0.0087891
-0.00930961
-0.00985841
-0.0104506
-0.0109134
-0.0109211
-0.00829147
-0.00878575
-0.00930491
-0.00985238
-0.0104424
-0.0108996
-0.0109013
-0.00828824
-0.00878073
-0.00929805
-0.0098446
-0.0104332
-0.0108824
-0.010876
-0.00828351
-0.00877323
-0.0092877
-0.00983287
-0.01041
-0.0108276
-0.0108251
-0.00338242
-0.0034202
-0.00368957
-0.0040924
-0.00451007
-0.00492408
-0.00533344
-0.00331684
-0.00335157
-0.0036431
-0.004063
-0.00448872
-0.00490862
-0.00532261
-0.00326278
-0.00330686
-0.00361078
-0.00403874
-0.00447
-0.0048946
-0.00531241
-0.00322113
-0.0032725
-0.00358431
-0.00401806
-0.00445382
-0.00488222
-0.00530314
-0.00318781
-0.00324434
-0.00356182
-0.00400018
-0.00443969
-0.00487123
-0.00529477
-0.00316197
-0.00322229
-0.00354376
-0.00398552
-0.00442793
-0.00486195
-0.00528759
-0.00314262
-0.0032056
-0.00352984
-0.00397405
-0.00441861
-0.0048545
-0.00528176
-0.00405531
-0.00403367
-0.00420616
-0.0044916
-0.00481134
-0.00514755
-0.00549245
-0.00401157
-0.00398762
-0.00417395
-0.00446947
-0.00479482
-0.00513538
-0.00548373
-0.00397195
-0.00395408
-0.00414861
-0.00444995
-0.00477962
-0.00512385
-0.00547521
-0.00393974
-0.00392706
-0.00412703
-0.00443273
-0.00476601
-0.00511331
-0.00546723
-0.003913
-0.00390427
-0.00410829
-0.00441753
-0.00475386
-0.00510377
-0.0054599
-0.00389158
-0.00388587
-0.0040929
-0.00440484
-0.00474358
-0.0050956
-0.00545353
-0.00387514
-0.00387165
-0.00408082
-0.00439476
-0.00473532
-0.00508896
-0.00544831
-0.004573
-0.00452819
-0.00464166
-0.00484475
-0.00508922
-0.00536015
-0.00564764
-0.00454488
-0.00449843
-0.00461981
-0.00482838
-0.00507655
-0.00535063
-0.00564067
-0.00451756
-0.0044745
-0.00460084
-0.00481326
-0.00506456
-0.00534136
-0.0056337
-0.00449372
-0.00445389
-0.00458388
-0.00479945
-0.00505347
-0.00533266
-0.00562702
-0.00447304
-0.00443586
-0.00456876
-0.00478697
-0.00504336
-0.00532462
-0.00562078
-0.00445592
-0.00442088
-0.00455604
-0.00477634
-0.00503465
-0.00531763
-0.00561529
-0.00444245
-0.00440905
-0.00454587
-0.00476777
-0.00502756
-0.00531188
-0.00561074
-0.00498535
-0.00493362
-0.00500552
-0.00515163
-0.00533891
-0.00555596
-0.00579341
-0.00496797
-0.00491325
-0.00499036
-0.00513973
-0.00532937
-0.00554862
-0.00578792
-0.00494928
-0.00489625
-0.00497642
-0.00512826
-0.00532008
-0.00554132
-0.00578233
-0.0049319
-0.00488082
-0.00496341
-0.00511745
-0.00531126
-0.00553428
-0.00577686
-0.00491622
-0.00486687
-0.00495149
-0.00510746
-0.00530304
-0.00552767
-0.00577167
-0.00490284
-0.00485497
-0.00494123
-0.00509878
-0.00529585
-0.00552183
-0.00576704
-0.00489207
-0.00484537
-0.00493289
-0.00509167
-0.00528991
-0.00551698
-0.00576316
-0.00532068
-0.00526557
-0.00530936
-0.00541515
-0.00555871
-0.0057318
-0.00592642
-0.00531029
-0.00525146
-0.0052988
-0.00540656
-0.00555159
-0.00572618
-0.00592214
-0.00529755
-0.00523943
-0.00528868
-0.00539799
-0.00554448
-0.00572049
-0.00591771
-0.00528503
-0.00522807
-0.00527888
-0.00538968
-0.00553757
-0.00571489
-0.0059133
-0.00527333
-0.00521746
-0.00526967
-0.00538183
-0.00553103
-0.00570956
-0.00590906
-0.00526306
-0.00520819
-0.00526157
-0.00537489
-0.0055252
-0.00570478
-0.00590524
-0.00525461
-0.00520056
-0.00525487
-0.00536912
-0.00552034
-0.00570077
-0.00590201
-0.00559435
-0.00553871
-0.00556307
-0.00563942
-0.00574926
-0.00588667
-0.00604513
-0.0055885
-0.0055289
-0.0055557
-0.00563325
-0.00574396
-0.0058824
-0.00604182
-0.00557991
-0.00552046
-0.00554843
-0.00562691
-0.00573858
-0.00587801
-0.00603835
-0.005571
-0.00551219
-0.00554115
-0.0056206
-0.00573325
-0.00587363
-0.00603485
-0.00556238
-0.00550425
-0.00553414
-0.00561454
-0.00572812
-0.00586939
-0.00603144
-0.0055546
-0.00549714
-0.00552785
-0.00560909
-0.00572349
-0.00586555
-0.00602834
-0.00554808
-0.00549119
-0.00552257
-0.00560449
-0.00571957
-0.00586228
-0.00602569
-0.00573559
-0.00613083
-0.00652161
-0.00691125
-0.00730339
-0.00770103
-0.00572817
-0.00612598
-0.00651881
-0.00691019
-0.00730391
-0.00770316
-0.00572093
-0.00612107
-0.00651579
-0.00690879
-0.00730395
-0.00770461
-0.00571418
-0.00611635
-0.00651276
-0.00690718
-0.00730362
-0.00770548
-0.00570796
-0.00611192
-0.00650981
-0.00690552
-0.00730309
-0.00770601
-0.00570255
-0.00610799
-0.00650714
-0.00690393
-0.00730247
-0.00770628
-0.0056981
-0.00610471
-0.00650487
-0.00690254
-0.00730186
-0.00770639
-0.0058402
-0.00618802
-0.00653529
-0.00688234
-0.00722985
-0.00757788
-0.00583411
-0.00618397
-0.0065329
-0.00688139
-0.00723023
-0.0075796
-0.00582797
-0.00617977
-0.00653028
-0.00688016
-0.00723024
-0.00758083
-0.00582211
-0.00617564
-0.00652761
-0.00687875
-0.00722997
-0.00758165
-0.00581662
-0.00617171
-0.006525
-0.00687728
-0.00722953
-0.00758219
-0.0058118
-0.00616819
-0.00652261
-0.00687588
-0.00722902
-0.00758251
-0.00580779
-0.00616524
-0.00652057
-0.00687464
-0.00722851
-0.00758268
-0.00594438
-0.00624591
-0.00654959
-0.00685374
-0.00715696
-0.00745732
-0.00593942
-0.00624256
-0.00654758
-0.00685292
-0.00715724
-0.00745871
-0.00593434
-0.00623902
-0.00654535
-0.00685184
-0.00715722
-0.00745972
-0.00592937
-0.0062355
-0.00654306
-0.00685063
-0.00715698
-0.00746043
-0.00592466
-0.0062321
-0.00654079
-0.00684936
-0.00715662
-0.00746094
-0.00592047
-0.00622903
-0.0065387
-0.00684814
-0.0071562
-0.00746126
-0.00591696
-0.00622644
-0.00653691
-0.00684706
-0.00715577
-0.00746144
-0.00604377
-0.00630182
-0.00656379
-0.00682671
-0.00708782
-0.00734397
-0.0060398
-0.0062991
-0.00656213
-0.006826
-0.00708801
-0.00734506
-0.00603565
-0.00629618
-0.00656027
-0.00682508
-0.00708796
-0.00734586
-0.00603154
-0.00629323
-0.00655833
-0.00682404
-0.00708775
-0.00734645
-0.00602758
-0.00629035
-0.0065564
-0.00682296
-0.00708744
-0.00734688
-0.00602402
-0.00628773
-0.00655461
-0.00682191
-0.00708708
-0.00734717
-0.00602102
-0.0062855
-0.00655306
-0.00682098
-0.00708672
-0.00734735
-0.00613563
-0.00635405
-0.0065774
-0.00680198
-0.00702429
-0.00724052
-0.00613247
-0.00635186
-0.00657604
-0.00680138
-0.0070244
-0.00724135
-0.00612914
-0.00634948
-0.0065745
-0.0068006
-0.00702433
-0.00724197
-0.00612579
-0.00634705
-0.00657289
-0.00679972
-0.00702414
-0.00724243
-0.00612253
-0.00634466
-0.00657127
-0.0067988
-0.00702387
-0.00724277
-0.00611956
-0.00634246
-0.00656976
-0.00679792
-0.00702355
-0.00724301
-0.00611704
-0.00634057
-0.00656844
-0.00679712
-0.00702325
-0.00724316
-0.00621849
-0.00640159
-0.00659005
-0.0067799
-0.00696728
-0.00714818
-0.00621601
-0.00639984
-0.00658895
-0.00677939
-0.00696734
-0.0071488
-0.00621336
-0.00639793
-0.00658769
-0.00677874
-0.00696726
-0.00714926
-0.00621066
-0.00639595
-0.00658637
-0.006778
-0.00696707
-0.0071496
-0.00620801
-0.00639399
-0.00658503
-0.00677723
-0.00696683
-0.00714986
-0.00620558
-0.00639217
-0.00658377
-0.00677648
-0.00696656
-0.00715004
-0.0062035
-0.00639061
-0.00658267
-0.00677582
-0.00696629
-0.00715016
-0.00810613
-0.00851785
-0.00893054
-0.00933741
-0.00971799
-0.00994167
-0.00988737
-0.00811007
-0.00852404
-0.00893924
-0.00934899
-0.00973952
-0.00998014
-0.00991332
-0.008113
-0.00852864
-0.00894572
-0.00935732
-0.00975124
-0.00999936
-0.0099372
-0.00811508
-0.00853202
-0.00895055
-0.00936379
-0.00976016
-0.0100127
-0.00995492
-0.00811665
-0.0085347
-0.00895446
-0.00936919
-0.00976767
-0.0100234
-0.00996865
-0.0081178
-0.00853676
-0.00895754
-0.00937347
-0.00977354
-0.0100314
-0.00997899
-0.00811862
-0.0085383
-0.00895987
-0.00937674
-0.00977797
-0.0100374
-0.00998655
-0.00792516
-0.00826779
-0.00859767
-0.00890369
-0.00916762
-0.00930734
-0.00922545
-0.00792839
-0.00827286
-0.00860492
-0.00891352
-0.00918359
-0.00933397
-0.00924523
-0.00793091
-0.00827685
-0.00861057
-0.00892098
-0.00919385
-0.00934946
-0.00926373
-0.00793284
-0.00827997
-0.00861503
-0.00892697
-0.00920188
-0.00936058
-0.00927789
-0.00793436
-0.00828253
-0.00861874
-0.00893203
-0.00920864
-0.00936956
-0.00928922
-0.00793551
-0.00828454
-0.0086217
-0.00893609
-0.00921402
-0.00937655
-0.00929806
-0.00793634
-0.00828606
-0.00862398
-0.00893922
-0.00921812
-0.00938179
-0.00930469
-0.00775166
-0.00803465
-0.00829763
-0.00852915
-0.0087139
-0.00880198
-0.00872132
-0.00775428
-0.00803874
-0.00830344
-0.00853681
-0.00872495
-0.00881915
-0.0087345
-0.00775638
-0.00804204
-0.00830807
-0.00854287
-0.00873294
-0.00883026
-0.00874714
-0.00775805
-0.00804473
-0.00831189
-0.00854795
-0.00873958
-0.00883897
-0.00875758
-0.00775942
-0.00804701
-0.00831517
-0.00855234
-0.0087453
-0.0088463
-0.00876636
-0.00776049
-0.00804885
-0.00831783
-0.00855593
-0.00874995
-0.00885218
-0.00877345
-0.00776128
-0.00805026
-0.0083199
-0.00855873
-0.00875356
-0.0088567
-0.00877892
-0.00759102
-0.00782316
-0.00803216
-0.00820797
-0.00833914
-0.00839196
-0.00831799
-0.00759308
-0.00782634
-0.00803659
-0.00821361
-0.00834681
-0.00840374
-0.00832512
-0.00759476
-0.00782896
-0.00804024
-0.0082183
-0.00835274
-0.00841153
-0.00833343
-0.00759615
-0.00783119
-0.00804336
-0.00822239
-0.00835793
-0.00841806
-0.00834093
-0.00759732
-0.00783312
-0.00804611
-0.008226
-0.00836254
-0.00842378
-0.00834756
-0.00759825
-0.00783471
-0.00804838
-0.00822903
-0.00836638
-0.00842853
-0.00835311
-0.00759896
-0.00783595
-0.00805018
-0.00823143
-0.00836942
-0.00843226
-0.00835751
-0.00744614
-0.00763545
-0.00780111
-0.0079349
-0.00802874
-0.00805836
-0.0079886
-0.00744773
-0.00763787
-0.00780442
-0.00793894
-0.008034
-0.00806644
-0.00799176
-0.00744904
-0.00763991
-0.00780721
-0.00794245
-0.00803825
-0.0080718
-0.00799705
-0.00745015
-0.00764169
-0.00780968
-0.00794561
-0.00804214
-0.00807653
-0.00800229
-0.00745111
-0.00764326
-0.00781189
-0.00794847
-0.00804572
-0.00808086
-0.00800716
-0.00745188
-0.00764458
-0.00781375
-0.00795092
-0.00804877
-0.00808455
-0.0080114
-0.00745248
-0.00764562
-0.00781526
-0.0079529
-0.00805124
-0.00808753
-0.00801485
-0.00731805
-0.0074716
-0.00760252
-0.00770426
-0.00777118
-0.00778497
-0.00771914
-0.00731926
-0.00747343
-0.00760495
-0.00770711
-0.00777474
-0.00779053
-0.00772004
-0.00732026
-0.00747498
-0.00760704
-0.00770965
-0.00777769
-0.00779413
-0.00772327
-0.00732112
-0.00747635
-0.00760892
-0.00771201
-0.00778052
-0.00779746
-0.0077268
-0.00732187
-0.00747758
-0.00761064
-0.00771421
-0.0077832
-0.00780062
-0.00773027
-0.00732249
-0.00747863
-0.00761212
-0.00771612
-0.00778556
-0.00780341
-0.00773341
-0.00732297
-0.00747948
-0.00761333
-0.00771769
-0.00778749
-0.00780572
-0.00773603
-0.00312885
-0.00319362
-0.00351972
-0.0039656
-0.00441168
-0.00484892
-0.00527735
-0.00312001
-0.00318588
-0.00351312
-0.00396005
-0.0044071
-0.0048452
-0.00527439
-0.00311569
-0.00318208
-0.00350986
-0.00395731
-0.00440482
-0.00484335
-0.00527291
-0.00311569
-0.00318208
-0.00350987
-0.00395731
-0.00440482
-0.00484335
-0.00527291
-0.00312002
-0.00318588
-0.00351313
-0.00396006
-0.0044071
-0.00484521
-0.00527439
-0.00312886
-0.00319363
-0.00351973
-0.00396561
-0.00441169
-0.00484893
-0.00527735
-0.00386324
-0.00386128
-0.00407193
-0.00438726
-0.00472913
-0.00508394
-0.00544433
-0.00385551
-0.00385451
-0.00406609
-0.0043823
-0.00472501
-0.00508058
-0.00544165
-0.00385172
-0.00385117
-0.00406319
-0.00437983
-0.00472295
-0.0050789
-0.0054403
-0.00385172
-0.00385117
-0.00406319
-0.00437983
-0.00472295
-0.0050789
-0.0054403
-0.00385552
-0.00385452
-0.00406609
-0.0043823
-0.00472501
-0.00508059
-0.00544165
-0.00386325
-0.00386129
-0.00407194
-0.00438726
-0.00472914
-0.00508395
-0.00544433
-0.00443253
-0.00440029
-0.00453829
-0.00476132
-0.00502219
-0.0053075
-0.00560724
-0.00442601
-0.00439451
-0.00453327
-0.00475702
-0.00501859
-0.00530455
-0.00560488
-0.00442279
-0.00439165
-0.00453076
-0.00475488
-0.00501679
-0.00530307
-0.00560369
-0.00442279
-0.00439165
-0.00453077
-0.00475488
-0.00501679
-0.00530307
-0.00560369
-0.00442602
-0.00439452
-0.00453327
-0.00475703
-0.0050186
-0.00530455
-0.00560488
-0.00443254
-0.0044003
-0.0045383
-0.00476133
-0.0050222
-0.0053075
-0.00560725
-0.00488399
-0.00483815
-0.00492659
-0.00508627
-0.00528537
-0.00551325
-0.00576017
-0.00487863
-0.00483334
-0.00492237
-0.00508264
-0.00528231
-0.00551072
-0.00575813
-0.00487595
-0.00483094
-0.00492027
-0.00508082
-0.00528077
-0.00550945
-0.0057571
-0.00487596
-0.00483095
-0.00492027
-0.00508082
-0.00528077
-0.00550945
-0.0057571
-0.00487863
-0.00483335
-0.00492238
-0.00508264
-0.00528231
-0.00551072
-0.00575813
-0.004884
-0.00483816
-0.0049266
-0.00508627
-0.00528538
-0.00551325
-0.00576017
-0.00524817
-0.00519475
-0.00524975
-0.00536469
-0.00551658
-0.00569766
-0.00589949
-0.00524385
-0.00519084
-0.00524629
-0.00536169
-0.00551403
-0.00569554
-0.00589777
-0.00524168
-0.00518888
-0.00524455
-0.00536017
-0.00551275
-0.00569446
-0.0058969
-0.00524169
-0.00518888
-0.00524455
-0.00536018
-0.00551275
-0.00569447
-0.0058969
-0.00524386
-0.00519085
-0.00524629
-0.00536169
-0.00551404
-0.00569554
-0.00589777
-0.00524818
-0.00519476
-0.00524975
-0.00536469
-0.00551659
-0.00569766
-0.00589949
-0.00554304
-0.0054866
-0.00551848
-0.00560092
-0.00571652
-0.00585974
-0.00602361
-0.00553961
-0.00548348
-0.0055157
-0.00559849
-0.00571444
-0.00585799
-0.00602219
-0.00553789
-0.0054819
-0.0055143
-0.00559726
-0.00571338
-0.00585711
-0.00602146
-0.00553789
-0.0054819
-0.0055143
-0.00559726
-0.00571338
-0.00585711
-0.00602146
-0.00553962
-0.00548348
-0.00551571
-0.00559849
-0.00571444
-0.00585799
-0.00602219
-0.00554304
-0.00548661
-0.00551849
-0.00560093
-0.00571653
-0.00585974
-0.00602361
-0.00811917
-0.00853939
-0.00896156
-0.00937911
-0.00978115
-0.0100416
-0.00999184
-0.0081195
-0.00854009
-0.00896265
-0.00938065
-0.00978322
-0.0100443
-0.00999519
-0.00811967
-0.00854043
-0.00896319
-0.00938141
-0.00978422
-0.0100456
-0.00999682
-0.00811966
-0.00854043
-0.00896319
-0.00938141
-0.00978422
-0.0100456
-0.00999681
-0.0081195
-0.00854008
-0.00896264
-0.00938064
-0.0097832
-0.0100443
-0.00999518
-0.00811915
-0.00853938
-0.00896154
-0.0093791
-0.00978114
-0.0100416
-0.00999182
-0.00793692
-0.00828715
-0.00862563
-0.00894149
-0.00922109
-0.00938555
-0.00930941
-0.00793728
-0.00828786
-0.0086267
-0.00894297
-0.00922301
-0.00938796
-0.00931244
-0.00793745
-0.0082882
-0.00862723
-0.0089437
-0.00922396
-0.00938915
-0.00931391
-0.00793745
-0.0082882
-0.00862722
-0.0089437
-0.00922395
-0.00938914
-0.00931391
-0.00793727
-0.00828785
-0.00862669
-0.00894297
-0.009223
-0.00938795
-0.00931243
-0.00793691
-0.00828714
-0.00862561
-0.00894148
-0.00922107
-0.00938553
-0.00930939
-0.00776183
-0.00805128
-0.00832142
-0.00856079
-0.0087562
-0.00885998
-0.00878289
-0.00776218
-0.00805194
-0.00832241
-0.00856214
-0.00875792
-0.00886211
-0.00878546
-0.00776235
-0.00805227
-0.0083229
-0.0085628
-0.00875877
-0.00886316
-0.00878673
-0.00776235
-0.00805227
-0.0083229
-0.0085628
-0.00875877
-0.00886316
-0.00878672
-0.00776218
-0.00805194
-0.00832241
-0.00856213
-0.00875791
-0.0088621
-0.00878545
-0.00776182
-0.00805127
-0.00832141
-0.00856078
-0.00875618
-0.00885996
-0.00878287
-0.00759946
-0.00783685
-0.00805152
-0.00823321
-0.00837167
-0.00843501
-0.00836076
-0.00759978
-0.00783745
-0.00805239
-0.00823438
-0.00837316
-0.00843682
-0.0083629
-0.00759993
-0.00783774
-0.00805283
-0.00823496
-0.00837389
-0.00843772
-0.00836396
-0.00759993
-0.00783774
-0.00805283
-0.00823496
-0.00837389
-0.00843772
-0.00836396
-0.00759977
-0.00783744
-0.00805239
-0.00823437
-0.00837315
-0.00843681
-0.00836289
-0.00759945
-0.00783684
-0.0080515
-0.00823319
-0.00837166
-0.008435
-0.00836075
-0.00745291
-0.00764639
-0.00781638
-0.00795438
-0.00805309
-0.00808976
-0.00801745
-0.00745319
-0.0076469
-0.00781713
-0.00795537
-0.00805433
-0.00809125
-0.00801918
-0.00745332
-0.00764716
-0.0078175
-0.00795586
-0.00805494
-0.00809199
-0.00802004