/*--------------------------------*- C++ -*----------------------------------*\
  =========                 |
  \\      /  F ield         | OpenFOAM: The Open Source CFD Toolbox
   \\    /   O peration     | Website:  https://openfoam.org
    \\  /    A nd           | Version:  7
     \\/     M anipulation  |
\*---------------------------------------------------------------------------*/
FoamFile
{
    version     2.0;
    format      ascii;
    class       volVectorField;
    location    "1.5";
    object      U;
}
// * * * * * * * * * * * * * * * * * * * * * * * * * * * * * * * * * * * * * //

dimensions      [0 1 -1 0 0 0 0];

internalField   nonuniform List<vector> 
7784
(
(0.882581 -0.000149124 -0.000565676)
(0.88241 -0.000121552 -0.0004504)
(0.882492 -5.72118e-05 -0.000179372)
(0.882731 -2.42383e-05 -6.4609e-05)
(0.882817 -1.27937e-05 -2.91138e-05)
(0.882848 -7.44353e-06 -1.40394e-05)
(0.882869 -4.36852e-06 -7.16921e-06)
(0.882614 -0.000159195 -0.000496323)
(0.882482 -0.000129067 -0.000395828)
(0.882561 -6.46991e-05 -0.000159784)
(0.88276 -3.1071e-05 -5.9515e-05)
(0.882827 -1.81218e-05 -2.72508e-05)
(0.882853 -1.1196e-05 -1.31586e-05)
(0.882872 -6.90007e-06 -6.76581e-06)
(0.88263 -7.85027e-05 -0.000470869)
(0.88251 -6.50993e-05 -0.000375969)
(0.882588 -4.1706e-05 -0.000150693)
(0.882775 -2.59278e-05 -5.60269e-05)
(0.882836 -1.69563e-05 -2.56989e-05)
(0.882858 -1.11864e-05 -1.24047e-05)
(0.882876 -7.33605e-06 -6.39896e-06)
(0.882638 -4.68492e-05 -0.000461704)
(0.882523 -4.04211e-05 -0.000368496)
(0.882601 -2.96678e-05 -0.000146466)
(0.882785 -2.07922e-05 -5.39451e-05)
(0.882842 -1.4551e-05 -2.46467e-05)
(0.882863 -1.01219e-05 -1.18518e-05)
(0.882879 -6.9543e-06 -6.10338e-06)
(0.882642 -3.12633e-05 -0.000457813)
(0.882529 -2.76111e-05 -0.00036521)
(0.882609 -2.172e-05 -0.000144346)
(0.882791 -1.62749e-05 -5.27436e-05)
(0.882847 -1.19814e-05 -2.39721e-05)
(0.882866 -8.68827e-06 -1.14643e-05)
(0.882881 -6.17997e-06 -5.87827e-06)
(0.882644 -2.12249e-05 -0.000456061)
(0.882533 -1.90737e-05 -0.000363692)
(0.882613 -1.57097e-05 -0.000143265)
(0.882795 -1.23537e-05 -5.20557e-05)
(0.88285 -9.46062e-06 -2.35453e-05)
(0.882869 -7.0851e-06 -1.11985e-05)
(0.882883 -5.17614e-06 -5.7131e-06)
(0.882645 -1.43582e-05 -0.000455231)
(0.882535 -1.30838e-05 -0.00036295)
(0.882616 -1.11042e-05 -0.000142693)
(0.882797 -9.02069e-06 -5.1655e-05)
(0.882852 -7.10571e-06 -2.32757e-05)
(0.88287 -5.44991e-06 -1.10194e-05)
(0.882884 -4.06239e-06 -5.59548e-06)
(0.236653 -0.000118724 -0.000985889)
(0.236456 -9.78758e-05 -0.000767157)
(0.236507 -5.41869e-05 -0.000334786)
(0.236694 -2.74219e-05 -0.000155959)
(0.236793 -1.55408e-05 -8.90865e-05)
(0.236853 -9.25585e-06 -5.28103e-05)
(0.236897 -5.56188e-06 -3.23091e-05)
(0.23668 -0.000135555 -0.000871578)
(0.236506 -0.000111633 -0.000679838)
(0.236555 -6.57841e-05 -0.00030272)
(0.236719 -3.68687e-05 -0.000146641)
(0.236804 -2.25996e-05 -8.52472e-05)
(0.236859 -1.41985e-05 -5.09712e-05)
(0.236901 -8.90886e-06 -3.14805e-05)
(0.236697 -8.76981e-05 -0.000824705)
(0.236533 -7.36222e-05 -0.000644117)
(0.236581 -5.08118e-05 -0.000285753)
(0.236736 -3.3594e-05 -0.000139342)
(0.236815 -2.24905e-05 -8.16436e-05)
(0.236866 -1.50015e-05 -4.91211e-05)
(0.236905 -9.91247e-06 -3.0541e-05)
(0.236707 -6.01032e-05 -0.000805184)
(0.236547 -5.19252e-05 -0.000628478)
(0.236597 -3.9226e-05 -0.000276617)
(0.236747 -2.82435e-05 -0.000134457)
(0.236823 -2.00377e-05 -7.89628e-05)
(0.236872 -1.40182e-05 -4.76282e-05)
(0.236909 -9.64444e-06 -2.97071e-05)
(0.236712 -4.26178e-05 -0.000795644)
(0.236556 -3.75874e-05 -0.00062056)
(0.236606 -2.99488e-05 -0.000271416)
(0.236755 -2.2756e-05 -0.00013133)
(0.236829 -1.68748e-05 -7.70928e-05)
(0.236877 -1.22586e-05 -4.65043e-05)
(0.236913 -8.7039e-06 -2.90332e-05)
(0.236715 -2.99864e-05 -0.000790797)
(0.236561 -2.6889e-05 -0.000616433)
(0.236612 -2.22508e-05 -0.000268461)
(0.236761 -1.76013e-05 -0.000129375)
(0.236834 -1.35156e-05 -7.58265e-05)
(0.23688 -1.01148e-05 -4.56911e-05)
(0.236916 -7.36344e-06 -2.8517e-05)
(0.236717 -2.06997e-05 -0.000788249)
(0.236564 -1.88076e-05 -0.000614202)
(0.236616 -1.59742e-05 -0.000266754)
(0.236764 -1.29999e-05 -0.000128158)
(0.236837 -1.02425e-05 -7.49857e-05)
(0.236883 -7.83945e-06 -4.51215e-05)
(0.236918 -5.81696e-06 -2.81384e-05)
(0.0466792 -5.95516e-05 -0.000756226)
(0.0465032 -5.24806e-05 -0.000609475)
(0.0464807 -3.47944e-05 -0.000359881)
(0.046562 -2.07327e-05 -0.000225385)
(0.0466234 -1.28151e-05 -0.000149481)
(0.0466694 -8.08043e-06 -9.92933e-05)
(0.0467051 -5.09488e-06 -6.59809e-05)
(0.0466875 -7.63586e-05 -0.000691861)
(0.0465207 -6.66263e-05 -0.000560258)
(0.0465016 -4.59228e-05 -0.000337667)
(0.046576 -2.92681e-05 -0.000216604)
(0.0466313 -1.91138e-05 -0.000145289)
(0.0466743 -1.25494e-05 -9.71977e-05)
(0.0467082 -8.17456e-06 -6.49726e-05)
(0.0466957 -6.25449e-05 -0.000657214)
(0.046535 -5.41346e-05 -0.00053337)
(0.0465172 -4.03219e-05 -0.00032262)
(0.0465877 -2.83648e-05 -0.000208709)
(0.0466393 -1.97456e-05 -0.000140925)
(0.0466798 -1.35775e-05 -9.47896e-05)
(0.046712 -9.19108e-06 -6.36598e-05)
(0.0467016 -4.84116e-05 -0.000638633)
(0.0465446 -4.24464e-05 -0.000518265)
(0.0465279 -3.33891e-05 -0.000312856)
(0.0465967 -2.49363e-05 -0.000202814)
(0.0466461 -1.81762e-05 -0.000137382)
(0.0466848 -1.29867e-05 -9.26811e-05)
(0.0467157 -9.07997e-06 -6.24174e-05)
(0.0467055 -3.6687e-05 -0.000627801)
(0.0465511 -3.26535e-05 -0.000509191)
(0.0465352 -2.668e-05 -0.000306493)
(0.0466032 -2.07683e-05 -0.00019865)
(0.0466514 -1.56924e-05 -0.000134711)
(0.046689 -1.15675e-05 -9.09922e-05)
(0.0467189 -8.30463e-06 -6.13648e-05)
(0.0467081 -2.70504e-05 -0.000621511)
(0.0465553 -2.43932e-05 -0.000503793)
(0.0465401 -2.04977e-05 -0.000302461)
(0.0466078 -1.64657e-05 -0.000195824)
(0.0466554 -1.28036e-05 -0.000132788)
(0.0466922 -9.67896e-06 -8.97116e-05)
(0.0467215 -7.09977e-06 -6.0529e-05)
(0.0467097 -1.92697e-05 -0.000617837)
(0.046558 -1.75623e-05 -0.000500566)
(0.0465433 -1.50574e-05 -0.000299929)
(0.046611 -1.23752e-05 -0.000193953)
(0.0466583 -9.8335e-06 -0.000131451)
(0.0466947 -7.57914e-06 -8.87829e-05)
(0.0467236 -5.65326e-06 -5.98999e-05)
(0.882883 -2.60492e-06 -4.09269e-06)
(0.882892 -1.52555e-06 -2.54974e-06)
(0.882897 -7.83583e-07 -1.65202e-06)
(0.882899 -1.93661e-07 -1.05234e-06)
(0.882899 3.76592e-07 -5.0233e-07)
(0.882897 1.05095e-06 2.08009e-07)
(0.882885 -4.27004e-06 -3.90063e-06)
(0.882893 -2.56744e-06 -2.4539e-06)
(0.882898 -1.35226e-06 -1.61e-06)
(0.8829 -3.68371e-07 -1.04783e-06)
(0.8829 5.73956e-07 -5.33416e-07)
(0.882898 1.6524e-06 1.25646e-07)
(0.882887 -4.75408e-06 -3.71707e-06)
(0.882894 -2.94972e-06 -2.3609e-06)
(0.882899 -1.59646e-06 -1.56785e-06)
(0.882901 -4.72788e-07 -1.04084e-06)
(0.882901 5.96261e-07 -5.60459e-07)
(0.882899 1.77646e-06 5.09274e-08)
(0.882889 -4.67106e-06 -3.5568e-06)
(0.882896 -2.97794e-06 -2.27497e-06)
(0.8829 -1.65372e-06 -1.52697e-06)
(0.882902 -5.29138e-07 -1.03212e-06)
(0.882902 5.37833e-07 -5.827e-07)
(0.8829 1.68104e-06 -1.19955e-08)
(0.882891 -4.26738e-06 -3.42612e-06)
(0.882897 -2.78146e-06 -2.20121e-06)
(0.882901 -1.57841e-06 -1.49004e-06)
(0.882903 -5.36691e-07 -1.02285e-06)
(0.882903 4.5085e-07 -5.99733e-07)
(0.882902 1.4856e-06 -6.10559e-08)
(0.882893 -3.65283e-06 -3.32469e-06)
(0.882899 -2.42386e-06 -2.14126e-06)
(0.882902 -1.40009e-06 -1.45893e-06)
(0.882904 -4.99354e-07 -1.01416e-06)
(0.882904 3.54774e-07 -6.12112e-07)
(0.882903 1.23522e-06 -9.79165e-08)
(0.882894 -2.91484e-06 -3.24915e-06)
(0.8829 -1.96119e-06 -2.09502e-06)
(0.882903 -1.14902e-06 -1.43404e-06)
(0.882905 -4.25227e-07 -1.00648e-06)
(0.882905 2.61745e-07 -6.20637e-07)
(0.882903 9.61268e-07 -1.24463e-07)
(0.236927 -3.36255e-06 -2.02386e-05)
(0.236946 -1.96618e-06 -1.22231e-05)
(0.236956 -9.80262e-07 -6.17841e-06)
(0.236959 -1.7406e-07 -9.60846e-07)
(0.236954 6.28422e-07 4.33436e-06)
(0.236942 1.59752e-06 1.06926e-05)
(0.236929 -5.56343e-06 -1.98574e-05)
(0.236947 -3.32981e-06 -1.20418e-05)
(0.236957 -1.69708e-06 -6.10111e-06)
(0.23696 -3.41072e-07 -9.52849e-07)
(0.236955 9.92142e-07 4.27333e-06)
(0.236943 2.54944e-06 1.05202e-05)
(0.236932 -6.42955e-06 -1.93729e-05)
(0.236949 -3.94981e-06 -1.17935e-05)
(0.236959 -2.05644e-06 -5.98992e-06)
(0.236961 -4.4967e-07 -9.39309e-07)
(0.236957 1.11596e-06 4.18915e-06)
(0.236945 2.88218e-06 1.0295e-05)
(0.236935 -6.45369e-06 -1.89067e-05)
(0.236951 -4.05978e-06 -1.154e-05)
(0.23696 -2.16144e-06 -5.871e-06)
(0.236963 -5.19423e-07 -9.21362e-07)
(0.236958 1.07207e-06 4.10721e-06)
(0.236947 2.81336e-06 1.0081e-05)
(0.236938 -5.9729e-06 -1.85068e-05)
(0.236954 -3.83373e-06 -1.13123e-05)
(0.236962 -2.08235e-06 -5.75969e-06)
(0.236964 -5.42416e-07 -9.00952e-07)
(0.23696 9.44966e-07 4.03884e-06)
(0.236949 2.53344e-06 9.90311e-06)
(0.23694 -5.1567e-06 -1.81856e-05)
(0.236955 -3.36533e-06 -1.11222e-05)
(0.236964 -1.85963e-06 -5.66352e-06)
(0.236966 -5.17264e-07 -8.80496e-07)
(0.236961 7.76567e-07 3.98607e-06)
(0.236951 2.13222e-06 9.76438e-06)
(0.236942 -4.13842e-06 -1.7941e-05)
(0.236957 -2.73675e-06 -1.0973e-05)
(0.236965 -1.53364e-06 -5.58584e-06)
(0.236967 -4.49126e-07 -8.62042e-07)
(0.236963 5.9478e-07 3.94759e-06)
(0.236952 1.67286e-06 9.66172e-06)
(0.0467305 -3.18228e-06 -4.29377e-05)
(0.0467469 -1.89228e-06 -2.57252e-05)
(0.0467555 -9.41889e-07 -1.16481e-05)
(0.0467569 -1.4475e-07 1.16585e-06)
(0.046751 6.52541e-07 1.42876e-05)
(0.0467374 1.59526e-06 2.94647e-05)
(0.0467325 -5.2356e-06 -4.24481e-05)
(0.0467483 -3.17512e-06 -2.5486e-05)
(0.0467565 -1.61565e-06 -1.15426e-05)
(0.0467578 -2.92443e-07 1.18179e-06)
(0.046752 1.01557e-06 1.4212e-05)
(0.0467387 2.51859e-06 2.92431e-05)
(0.0467352 -6.06076e-06 -4.17326e-05)
(0.0467502 -3.755e-06 -2.51061e-05)
(0.0467581 -1.94793e-06 -1.13693e-05)
(0.0467592 -3.87858e-07 1.20178e-06)
(0.0467535 1.1401e-06 1.40784e-05)
(0.0467405 2.84618e-06 2.88971e-05)
(0.0467379 -6.14289e-06 -4.10092e-05)
(0.0467524 -3.88343e-06 -2.47027e-05)
(0.0467598 -2.05564e-06 -1.11786e-05)
(0.0467608 -4.53071e-07 1.22687e-06)
(0.0467551 1.10781e-06 1.39393e-05)
(0.0467424 2.80541e-06 2.85485e-05)
(0.0467404 -5.74046e-06 -4.03665e-05)
(0.0467544 -3.69342e-06 -2.43301e-05)
(0.0467615 -1.99152e-06 -1.09965e-05)
(0.0467624 -4.78606e-07 1.25578e-06)
(0.0467567 9.89315e-07 1.38182e-05)
(0.0467442 2.55134e-06 2.8246e-05)
(0.0467425 -4.99553e-06 -3.9836e-05)
(0.0467561 -3.26227e-06 -2.40128e-05)
(0.0467631 -1.78756e-06 -1.08368e-05)
(0.0467638 -4.61089e-07 1.28534e-06)
(0.0467582 8.22519e-07 1.37211e-05)
(0.0467458 2.16463e-06 2.80024e-05)
(0.0467443 -4.03386e-06 -3.94239e-05)
(0.0467576 -2.66594e-06 -2.37599e-05)
(0.0467643 -1.48033e-06 -1.07062e-05)
(0.046765 -4.03797e-07 1.31255e-06)
(0.0467594 6.36155e-07 1.36482e-05)
(0.046747 1.70901e-06 2.78176e-05)
(0.882891 2.01407e-06 1.59562e-06)
(0.882879 3.60059e-06 5.03442e-06)
(0.88286 6.28896e-06 1.40777e-05)
(0.88281 1.16126e-05 3.81601e-05)
(0.882623 2.92958e-05 0.00011363)
(0.882442 7.21895e-05 0.000331661)
(0.882568 9.39354e-05 0.000542847)
(0.882892 3.11053e-06 1.419e-06)
(0.882882 5.3543e-06 4.65266e-06)
(0.882864 8.92134e-06 1.3246e-05)
(0.882825 1.5197e-05 3.59518e-05)
(0.882663 3.32357e-05 0.000104397)
(0.882484 7.54555e-05 0.000301855)
(0.882582 9.84771e-05 0.00050229)
(0.882894 3.26735e-06 1.25722e-06)
(0.882884 5.35579e-06 4.30795e-06)
(0.882869 8.44573e-06 1.24928e-05)
(0.882833 1.3211e-05 3.41867e-05)
(0.882678 2.20122e-05 9.96473e-05)
(0.8825 3.74055e-05 0.000290594)
(0.88259 4.74491e-05 0.000487354)
(0.882896 3.04885e-06 1.12734e-06)
(0.882887 4.82781e-06 4.05261e-06)
(0.882872 7.26248e-06 1.19853e-05)
(0.882838 1.06957e-05 3.31505e-05)
(0.882686 1.58085e-05 9.74635e-05)
(0.882507 2.30059e-05 0.000286355)
(0.882594 2.81133e-05 0.000481849)
(0.882897 2.67398e-06 1.03035e-06)
(0.882888 4.13577e-06 3.87502e-06)
(0.882875 6.00963e-06 1.16635e-05)
(0.882841 8.463e-06 3.25605e-05)
(0.88269 1.1717e-05 9.63779e-05)
(0.882512 1.56914e-05 0.000284512)
(0.882596 1.86141e-05 0.000479507)
(0.882898 2.21465e-06 9.59927e-07)
(0.88289 3.36741e-06 3.75337e-06)
(0.882876 4.76753e-06 1.14589e-05)
(0.882844 6.48222e-06 3.2219e-05)
(0.882693 8.55208e-06 9.58177e-05)
(0.882514 1.08314e-05 0.000283666)
(0.882598 1.25388e-05 0.000478464)
(0.882899 1.72084e-06 9.10338e-07)
(0.882891 2.58486e-06 3.67135e-06)
(0.882878 3.59052e-06 1.13292e-05)
(0.882845 4.75902e-06 3.20186e-05)
(0.882695 6.07537e-06 9.55187e-05)
(0.882516 7.4249e-06 0.000283255)
(0.882599 8.43545e-06 0.000477977)
(0.23692 2.99443e-06 1.98275e-05)
(0.236886 5.27309e-06 3.53864e-05)
(0.236838 9.14849e-06 6.54266e-05)
(0.23676 1.64655e-05 0.000128245)
(0.2366 3.44016e-05 0.000284665)
(0.23653 6.70606e-05 0.000664301)
(0.236754 8.15561e-05 0.0010139)
(0.236922 4.6731e-06 1.94224e-05)
(0.23689 7.90829e-06 3.44377e-05)
(0.236844 1.30267e-05 6.32548e-05)
(0.236775 2.17037e-05 0.000122667)
(0.236631 4.06757e-05 0.000265097)
(0.236557 7.4256e-05 0.000609277)
(0.236761 9.08022e-05 0.000940258)
(0.236925 5.14163e-06 1.89403e-05)
(0.236894 8.29931e-06 3.34328e-05)
(0.23685 1.28991e-05 6.11538e-05)
(0.236785 1.97463e-05 0.000118134)
(0.236648 3.07966e-05 0.000254359)
(0.236572 4.66573e-05 0.000586429)
(0.236767 5.63226e-05 0.000910371)
(0.236928 4.92754e-06 1.85131e-05)
(0.236897 7.68653e-06 3.26236e-05)
(0.236855 1.14204e-05 5.96297e-05)
(0.236792 1.65256e-05 0.000115247)
(0.236657 2.35487e-05 0.000248821)
(0.23658 3.21777e-05 0.000576616)
(0.236772 3.78887e-05 0.000897914)
(0.23693 4.38326e-06 1.81741e-05)
(0.2369 6.66934e-06 3.20235e-05)
(0.236859 9.57717e-06 5.85885e-05)
(0.236797 1.32842e-05 0.000113449)
(0.236663 1.79144e-05 0.000245747)
(0.236586 2.30564e-05 0.000571748)
(0.236774 2.65857e-05 0.000891879)
(0.236932 3.65897e-06 1.79182e-05)
(0.236902 5.46395e-06 3.15935e-05)
(0.236861 7.64228e-06 5.789e-05)
(0.2368 1.02529e-05 0.000112336)
(0.236666 1.32688e-05 0.000244016)
(0.236589 1.63765e-05 0.000569247)
(0.236776 1.85503e-05 0.00088886)
(0.236933 2.856e-06 1.77333e-05)
(0.236904 4.20681e-06 3.12947e-05)
(0.236863 5.77012e-06 5.74293e-05)
(0.236802 7.55426e-06 0.000111647)
(0.236668 9.49841e-06 0.000243022)
(0.236591 1.13963e-05 0.000567913)
(0.236777 1.27267e-05 0.000887296)
(0.0467148 2.88812e-06 4.91178e-05)
(0.0466816 4.84433e-06 7.72905e-05)
(0.0466369 7.9179e-06 0.00012098)
(0.0465765 1.30722e-05 0.000191505)
(0.0464902 2.29004e-05 0.000319156)
(0.0464855 3.6112e-05 0.000569637)
(0.0466736 3.91158e-05 0.00080306)
(0.0467167 4.48916e-06 4.86012e-05)
(0.0466845 7.31236e-06 7.61293e-05)
(0.0466417 1.14901e-05 0.000118496)
(0.0465854 1.79417e-05 0.000186052)
(0.0465042 2.92205e-05 0.000304416)
(0.0464947 4.42484e-05 0.000534816)
(0.0466746 4.90742e-05 0.000757089)
(0.0467192 4.9731e-06 4.78962e-05)
(0.046688 7.82643e-06 7.47609e-05)
(0.0466466 1.1774e-05 0.000115895)
(0.0465928 1.72812e-05 0.000181151)
(0.0465142 2.51396e-05 0.000294699)
(0.0465028 3.45988e-05 0.000516737)
(0.0466779 3.9713e-05 0.000733647)
(0.0467216 4.83081e-06 4.72295e-05)
(0.0466912 7.39971e-06 7.3568e-05)
(0.0466509 1.07444e-05 0.000113813)
(0.0465984 1.50898e-05 0.000177574)
(0.0465209 2.06096e-05 0.000288587)
(0.0465086 2.66884e-05 0.000506939)
(0.046681 3.05514e-05 0.000721424)
(0.0467237 4.34812e-06 4.66718e-05)
(0.0466939 6.52282e-06 7.26221e-05)
(0.0466542 9.20812e-06 0.00011226)
(0.0466025 1.24948e-05 0.000175079)
(0.0465255 1.63614e-05 0.000284663)
(0.0465126 2.03453e-05 0.000501168)
(0.0466832 2.3014e-05 0.000714415)
(0.0467255 3.66274e-06 4.62347e-05)
(0.046696 5.40625e-06 7.19105e-05)
(0.0466568 7.46322e-06 0.000111151)
(0.0466054 9.85352e-06 0.0001734)
(0.0465286 1.24988e-05 0.000282202)
(0.0465152 1.50904e-05 0.000497789)
(0.0466848 1.68679e-05 0.000710412)
(0.046727 2.87857e-06 4.59097e-05)
(0.0466977 4.19779e-06 7.13981e-05)
(0.0466587 5.6981e-06 0.000110384)
(0.0466075 7.37068e-06 0.000172294)
(0.0465307 9.13801e-06 0.000280669)
(0.046517 1.08055e-05 0.000495795)
(0.0466858 1.19559e-05 0.000708107)
(0.882646 -9.30541e-06 -0.000454814)
(0.882537 -8.56162e-06 -0.000362566)
(0.882617 -7.40285e-06 -0.000142379)
(0.882799 -6.1402e-06 -5.14204e-05)
(0.882854 -4.93005e-06 -2.31083e-05)
(0.882872 -3.84493e-06 -1.09024e-05)
(0.882886 -2.90722e-06 -5.51547e-06)
(0.882647 -5.24864e-06 -0.000454604)
(0.882537 -4.85799e-06 -0.000362368)
(0.882618 -4.24659e-06 -0.000142211)
(0.8828 -3.56653e-06 -5.12893e-05)
(0.882854 -2.89778e-06 -2.30108e-05)
(0.882872 -2.28398e-06 -1.08319e-05)
(0.882886 -1.74281e-06 -5.46586e-06)
(0.882647 -1.69743e-06 -0.000454515)
(0.882538 -1.57563e-06 -0.000362283)
(0.882619 -1.38434e-06 -0.000142138)
(0.8828 -1.16946e-06 -5.12302e-05)
(0.882855 -9.55544e-07 -2.29658e-05)
(0.882873 -7.56955e-07 -1.07987e-05)
(0.882887 -5.80117e-07 -5.44214e-06)
(0.882647 1.69825e-06 -0.000454515)
(0.882538 1.57606e-06 -0.000362283)
(0.882619 1.38483e-06 -0.000142138)
(0.8828 1.17002e-06 -5.12302e-05)
(0.882855 9.56164e-07 -2.29658e-05)
(0.882873 7.57634e-07 -1.07987e-05)
(0.882887 5.80871e-07 -5.44214e-06)
(0.882647 5.24947e-06 -0.000454604)
(0.882537 4.85833e-06 -0.000362369)
(0.882618 4.24703e-06 -0.000142211)
(0.8828 3.56703e-06 -5.12893e-05)
(0.882854 2.89835e-06 -2.30108e-05)
(0.882872 2.28461e-06 -1.08319e-05)
(0.882886 1.74354e-06 -5.46583e-06)
(0.882646 9.30621e-06 -0.000454814)
(0.882537 8.56195e-06 -0.000362566)
(0.882617 7.40321e-06 -0.000142379)
(0.882799 6.14068e-06 -5.14205e-05)
(0.882854 4.9306e-06 -2.31083e-05)
(0.882872 3.84551e-06 -1.09024e-05)
(0.882886 2.9079e-06 -5.51542e-06)
(0.236718 -1.35557e-05 -0.000786866)
(0.236566 -1.24323e-05 -0.000612962)
(0.236618 -1.07407e-05 -0.000265759)
(0.236767 -8.90826e-06 -0.00012741)
(0.236839 -7.14542e-06 -7.44445e-05)
(0.236885 -5.55698e-06 -4.47397e-05)
(0.236919 -4.1804e-06 -2.78758e-05)
(0.236719 -7.68597e-06 -0.000786132)
(0.236568 -7.0907e-06 -0.000612293)
(0.236619 -6.1894e-06 -0.000265206)
(0.236768 -5.19377e-06 -0.000126979)
(0.23684 -4.21325e-06 -7.41222e-05)
(0.236886 -3.31029e-06 -4.45058e-05)
(0.23692 -2.51248e-06 -2.77109e-05)
(0.236719 -2.49147e-06 -0.000785812)
(0.236568 -2.30515e-06 -0.000611998)
(0.23662 -2.022e-06 -0.000264957)
(0.236769 -1.70622e-06 -0.000126782)
(0.236841 -1.39169e-06 -7.39718e-05)
(0.236886 -1.0989e-06 -4.43948e-05)
(0.236921 -8.37696e-07 -2.76315e-05)
(0.236719 2.49135e-06 -0.000785812)
(0.236568 2.30473e-06 -0.000611998)
(0.23662 2.02164e-06 -0.000264957)
(0.236769 1.70589e-06 -0.000126782)
(0.236841 1.39137e-06 -7.39718e-05)
(0.236886 1.0986e-06 -4.43948e-05)
(0.236921 8.37455e-07 -2.76315e-05)
(0.236719 7.68568e-06 -0.000786132)
(0.236568 7.09011e-06 -0.000612293)
(0.236619 6.18891e-06 -0.000265206)
(0.236768 5.19333e-06 -0.000126979)
(0.23684 4.21285e-06 -7.41222e-05)
(0.236886 3.30991e-06 -4.45058e-05)
(0.23692 2.51215e-06 -2.77109e-05)
(0.236718 1.35552e-05 -0.000786866)
(0.236566 1.24315e-05 -0.000612962)
(0.236618 1.074e-05 -0.000265759)
(0.236767 8.90773e-06 -0.00012741)
(0.236839 7.14497e-06 -7.44445e-05)
(0.236885 5.55658e-06 -4.47397e-05)
(0.236919 4.18005e-06 -2.78757e-05)
(0.0467108 -1.2871e-05 -0.00061569)
(0.0465597 -1.18225e-05 -0.000498645)
(0.0465453 -1.02762e-05 -0.000298367)
(0.0466131 -8.57994e-06 -0.000192752)
(0.0466602 -6.92317e-06 -0.000130562)
(0.0466965 -5.41112e-06 -8.81446e-05)
(0.0467251 -4.08569e-06 -5.9455e-05)
(0.0467114 -7.38262e-06 -0.000614495)
(0.0465607 -6.81561e-06 -0.000497561)
(0.0465466 -5.97502e-06 -0.000297465)
(0.0466144 -5.03836e-06 -0.00019204)
(0.0466614 -4.10554e-06 -0.000130021)
(0.0466976 -3.23803e-06 -8.7747e-05)
(0.0467261 -2.46441e-06 -5.91722e-05)
(0.0467117 -2.40596e-06 -0.00061396)
(0.0465612 -2.22681e-06 -0.000497071)
(0.0465471 -1.96018e-06 -0.000297052)
(0.046615 -1.66083e-06 -0.000191708)
(0.046662 -1.35985e-06 -0.000129766)
(0.0466981 -1.07731e-06 -8.75566e-05)
(0.0467266 -8.23178e-07 -5.90351e-05)
(0.0467117 2.40587e-06 -0.00061396)
(0.0465612 2.22637e-06 -0.000497071)
(0.0465471 1.9598e-06 -0.000297052)
(0.046615 1.66043e-06 -0.000191708)
(0.046662 1.35943e-06 -0.000129766)
(0.0466981 1.07685e-06 -8.75566e-05)
(0.0467266 8.22721e-07 -5.90351e-05)
(0.0467114 7.38235e-06 -0.000614495)
(0.0465607 6.81501e-06 -0.000497561)
(0.0465466 5.97448e-06 -0.000297465)
(0.0466144 5.03786e-06 -0.00019204)
(0.0466614 4.10503e-06 -0.000130021)
(0.0466976 3.23748e-06 -8.7747e-05)
(0.0467261 2.4639e-06 -5.91722e-05)
(0.0467108 1.28705e-05 -0.00061569)
(0.0465597 1.18217e-05 -0.000498645)
(0.0465453 1.02755e-05 -0.000298367)
(0.0466131 8.57933e-06 -0.000192752)
(0.0466602 6.9226e-06 -0.000130562)
(0.0466965 5.41056e-06 -8.81445e-05)
(0.0467251 4.08515e-06 -5.94549e-05)
(0.882895 -2.1111e-06 -3.19606e-06)
(0.8829 -1.43498e-06 -2.06164e-06)
(0.882904 -8.49612e-07 -1.41571e-06)
(0.882906 -3.22965e-07 -1.00056e-06)
(0.882906 1.77294e-07 -6.26248e-07)
(0.882904 6.82385e-07 -1.42603e-07)
(0.882895 -1.27537e-06 -3.16232e-06)
(0.882901 -8.72666e-07 -2.04e-06)
(0.882904 -5.20236e-07 -1.40361e-06)
(0.882906 -2.01174e-07 -9.96464e-07)
(0.882906 1.0212e-07 -6.296e-07)
(0.882904 4.06706e-07 -1.53877e-07)
(0.882896 -4.2605e-07 -3.146e-06)
(0.882901 -2.92386e-07 -2.02943e-06)
(0.882905 -1.74758e-07 -1.39761e-06)
(0.882906 -6.79371e-08 -9.94353e-07)
(0.882906 3.36442e-08 -6.31138e-07)
(0.882905 1.354e-07 -1.59254e-07)
(0.882896 4.26877e-07 -3.14601e-06)
(0.882901 2.93263e-07 -2.02943e-06)
(0.882905 1.75748e-07 -1.3976e-06)
(0.882906 6.90298e-08 -9.94346e-07)
(0.882906 -3.24497e-08 -6.31144e-07)
(0.882905 -1.34086e-07 -1.5925e-07)
(0.882895 1.27616e-06 -3.16234e-06)
(0.882901 8.73526e-07 -2.04001e-06)
(0.882904 5.21183e-07 -1.4036e-06)
(0.882906 2.02203e-07 -9.96443e-07)
(0.882906 -1.00984e-07 -6.29586e-07)
(0.882904 -4.05441e-07 -1.53834e-07)
(0.882895 2.11185e-06 -3.19602e-06)
(0.8829 1.43581e-06 -2.06159e-06)
(0.882904 8.50529e-07 -1.41568e-06)
(0.882906 3.23995e-07 -1.00053e-06)
(0.882906 -1.7618e-07 -6.2619e-07)
(0.882904 -6.81177e-07 -1.42492e-07)
(0.236943 -3.00855e-06 -1.77663e-05)
(0.236958 -2.00916e-06 -1.08639e-05)
(0.236966 -1.13798e-06 -5.52778e-06)
(0.236968 -3.46251e-07 -8.47111e-07)
(0.236964 4.15378e-07 3.92126e-06)
(0.236953 1.1939e-06 9.59014e-06)
(0.236944 -1.82181e-06 -1.76544e-05)
(0.236959 -1.22456e-06 -1.07929e-05)
(0.236967 -6.98578e-07 -5.48936e-06)
(0.236968 -2.17948e-07 -8.36637e-07)
(0.236964 2.44208e-07 3.90504e-06)
(0.236953 7.13525e-07 9.54521e-06)
(0.236944 -6.09693e-07 -1.75999e-05)
(0.236959 -4.11161e-07 -1.0758e-05)
(0.236967 -2.35395e-07 -5.47023e-06)
(0.236969 -7.43435e-08 -8.31224e-07)
(0.236965 8.04446e-08 3.89734e-06)
(0.236954 2.37132e-07 9.52359e-06)
(0.236944 6.09469e-07 -1.75999e-05)
(0.236959 4.1095e-07 -1.0758e-05)
(0.236967 2.3526e-07 -5.47023e-06)
(0.236969 7.4264e-08 -8.31232e-07)
(0.236965 -8.05604e-08 3.89733e-06)
(0.236954 -2.3723e-07 9.52362e-06)
(0.236944 1.82155e-06 -1.76544e-05)
(0.236959 1.22434e-06 -1.07929e-05)
(0.236967 6.98389e-07 -5.48932e-06)
(0.236968 2.1776e-07 -8.36596e-07)
(0.236964 -2.4439e-07 3.9051e-06)
(0.236953 -7.13642e-07 9.54534e-06)
(0.236943 3.00827e-06 -1.77662e-05)
(0.236958 2.00894e-06 -1.08639e-05)
(0.236966 1.1378e-06 -5.5277e-06)
(0.236968 3.4606e-07 -8.47005e-07)
(0.236964 -4.15516e-07 3.92144e-06)
(0.236953 -1.19397e-06 9.59041e-06)
(0.0467455 -2.94564e-06 -3.91254e-05)
(0.0467587 -1.96431e-06 -2.3573e-05)
(0.0467653 -1.10191e-06 -1.06079e-05)
(0.0467659 -3.13255e-07 1.33485e-06)
(0.0467603 4.47787e-07 1.35972e-05)
(0.046748 1.22526e-06 2.76866e-05)
(0.0467464 -1.78889e-06 -3.89324e-05)
(0.0467594 -1.20012e-06 -2.34504e-05)
(0.046766 -6.77914e-07 -1.05424e-05)
(0.0467665 -1.98069e-07 1.3507e-06)
(0.0467609 2.64677e-07 1.35652e-05)
(0.0467487 7.34435e-07 2.76034e-05)
(0.0467468 -5.9959e-07 -3.88378e-05)
(0.0467598 -4.03496e-07 -2.33898e-05)
(0.0467663 -2.28735e-07 -1.05097e-05)
(0.0467668 -6.78285e-08 1.35886e-06)
(0.0467612 8.72651e-08 1.35498e-05)
(0.046749 2.44279e-07 2.7563e-05)
(0.0467468 5.99143e-07 -3.88378e-05)
(0.0467598 4.03023e-07 -2.33898e-05)
(0.0467663 2.28341e-07 -1.05097e-05)
(0.0467668 6.73859e-08 1.35885e-06)
(0.0467612 -8.78159e-08 1.35498e-05)
(0.046749 -2.44825e-07 2.7563e-05)
(0.0467464 1.78844e-06 -3.89323e-05)
(0.0467594 1.19964e-06 -2.34503e-05)
(0.046766 6.77435e-07 -1.05423e-05)
(0.0467665 1.9755e-07 1.35072e-06)
(0.0467609 -2.65209e-07 1.35653e-05)
(0.0467487 -7.34953e-07 2.76034e-05)
(0.0467455 2.94515e-06 -3.91253e-05)
(0.0467587 1.96383e-06 -2.35728e-05)
(0.0467653 1.10143e-06 -1.06078e-05)
(0.0467659 3.12729e-07 1.33497e-06)
(0.0467603 -4.48306e-07 1.35974e-05)
(0.046748 -1.22576e-06 2.76868e-05)
(0.8829 1.22141e-06 8.76857e-07)
(0.882892 1.81952e-06 3.61775e-06)
(0.882878 2.49435e-06 1.12484e-05)
(0.882846 3.24935e-06 3.19009e-05)
(0.882695 4.06135e-06 9.53544e-05)
(0.882516 4.85642e-06 0.000283044)
(0.882599 5.44676e-06 0.000477736)
(0.8829 7.28116e-07 8.56269e-07)
(0.882892 1.07906e-06 3.5855e-06)
(0.882879 1.46706e-06 1.12012e-05)
(0.882847 1.89066e-06 3.18348e-05)
(0.882696 2.33327e-06 9.52664e-05)
(0.882517 2.7549e-06 0.000282936)
(0.882599 3.06543e-06 0.000477616)
(0.882901 2.42181e-07 8.46492e-07)
(0.882892 3.57836e-07 3.57036e-06)
(0.882879 4.84424e-07 1.11794e-05)
(0.882847 6.20973e-07 3.1805e-05)
(0.882696 7.61672e-07 9.52277e-05)
(0.882517 8.94007e-07 0.000282889)
(0.882599 9.91233e-07 0.000477566)
(0.882901 -2.40752e-07 8.46512e-07)
(0.882892 -3.56329e-07 3.57038e-06)
(0.882879 -4.82854e-07 1.11794e-05)
(0.882847 -6.19349e-07 3.1805e-05)
(0.882696 -7.6002e-07 9.52277e-05)
(0.882517 -8.92198e-07 0.000282889)
(0.882599 -9.88579e-07 0.000477566)
(0.8829 -7.26732e-07 8.56347e-07)
(0.882892 -1.0776e-06 3.58557e-06)
(0.882879 -1.46554e-06 1.12013e-05)
(0.882847 -1.88908e-06 3.18348e-05)
(0.882696 -2.33164e-06 9.52664e-05)
(0.882517 -2.75312e-06 0.000282936)
(0.882599 -3.06283e-06 0.000477616)
(0.8829 -1.2201e-06 8.7699e-07)
(0.882892 -1.81814e-06 3.61785e-06)
(0.882878 -2.49292e-06 1.12485e-05)
(0.882846 -3.24787e-06 3.1901e-05)
(0.882695 -4.05977e-06 9.53545e-05)
(0.882516 -4.8547e-06 0.000283044)
(0.882599 -5.44427e-06 0.000477736)
(0.236934 2.03226e-06 1.76063e-05)
(0.236905 2.96521e-06 3.10956e-05)
(0.236865 4.0121e-06 5.71342e-05)
(0.236804 5.16496e-06 0.000111226)
(0.23667 6.37132e-06 0.000242447)
(0.236592 7.50681e-06 0.00056718)
(0.236778 8.29864e-06 0.000886459)
(0.236935 1.21275e-06 1.75274e-05)
(0.236906 1.75907e-06 3.09743e-05)
(0.236866 2.35983e-06 5.69591e-05)
(0.236805 3.00613e-06 0.000110984)
(0.236671 3.66524e-06 0.000242129)
(0.236593 4.27177e-06 0.000566787)
(0.236779 4.69243e-06 0.000886019)
(0.236935 4.02811e-07 1.74897e-05)
(0.236906 5.82629e-07 3.09169e-05)
(0.236866 7.78405e-07 5.68776e-05)
(0.236805 9.86607e-07 0.000110874)
(0.236671 1.19628e-06 0.000241986)
(0.236593 1.38724e-06 0.000566614)
(0.236779 1.51964e-06 0.000885829)
(0.236935 -4.02872e-07 1.74897e-05)
(0.236906 -5.82676e-07 3.09169e-05)
(0.236866 -7.78405e-07 5.68776e-05)
(0.236805 -9.86548e-07 0.000110874)
(0.236671 -1.19617e-06 0.000241986)
(0.236593 -1.38679e-06 0.000566614)
(0.236779 -1.51765e-06 0.000885828)
(0.236935 -1.21283e-06 1.75276e-05)
(0.236906 -1.75915e-06 3.09744e-05)
(0.236866 -2.35986e-06 5.69592e-05)
(0.236805 -3.00608e-06 0.000110984)
(0.236671 -3.6651e-06 0.000242129)
(0.236593 -4.27132e-06 0.000566787)
(0.236779 -4.6905e-06 0.000886019)
(0.236934 -2.03229e-06 1.76065e-05)
(0.236905 -2.96523e-06 3.10958e-05)
(0.236865 -4.0121e-06 5.71344e-05)
(0.236804 -5.16489e-06 0.000111226)
(0.23667 -6.37112e-06 0.000242447)
(0.236592 -7.50635e-06 0.000567179)
(0.236778 -8.2968e-06 0.000886459)
(0.046728 2.0582e-06 4.56823e-05)
(0.0466988 2.97627e-06 7.10482e-05)
(0.0466599 3.99219e-06 0.000109876)
(0.0466088 5.09052e-06 0.000171589)
(0.046532 6.21352e-06 0.000279729)
(0.0465181 7.24512e-06 0.000494618)
(0.0466864 7.95523e-06 0.000706774)
(0.0467287 1.23199e-06 4.55391e-05)
(0.0466996 1.77212e-06 7.08314e-05)
(0.0466608 2.35912e-06 0.000109568)
(0.0466097 2.98102e-06 0.000171171)
(0.0465328 3.60353e-06 0.000279189)
(0.0465187 4.16568e-06 0.000493959)
(0.0466868 4.55133e-06 0.000706039)
(0.0467291 4.09657e-07 4.547e-05)
(0.0467 5.87836e-07 7.07278e-05)
(0.0466611 7.79736e-07 0.000109423)
(0.0466101 9.81016e-07 0.000170977)
(0.0465332 1.18041e-06 0.000278942)
(0.046519 1.3591e-06 0.000493662)
(0.046687 1.48181e-06 0.000705711)
(0.0467291 -4.10224e-07 4.547e-05)
(0.0467 -5.88418e-07 7.07278e-05)
(0.0466611 -7.803e-07 0.000109423)
(0.0466101 -9.81551e-07 0.000170977)
(0.0465332 -1.18091e-06 0.000278942)
(0.046519 -1.35921e-06 0.000493662)
(0.046687 -1.48026e-06 0.000705711)
(0.0467287 -1.23256e-06 4.55391e-05)
(0.0466996 -1.77272e-06 7.08314e-05)
(0.0466608 -2.35966e-06 0.000109568)
(0.0466097 -2.98151e-06 0.000171171)
(0.0465328 -3.60397e-06 0.000279189)
(0.0465187 -4.1658e-06 0.000493958)
(0.0466868 -4.54983e-06 0.000706038)
(0.046728 -2.05873e-06 4.56824e-05)
(0.0466988 -2.97681e-06 7.10483e-05)
(0.0466599 -3.99269e-06 0.000109876)
(0.0466088 -5.09096e-06 0.000171589)
(0.046532 -6.21388e-06 0.000279729)
(0.0465181 -7.24521e-06 0.000494618)
(0.0466864 -7.95382e-06 0.000706774)
(0.882645 1.43591e-05 -0.000455231)
(0.882535 1.30841e-05 -0.00036295)
(0.882616 1.11046e-05 -0.000142693)
(0.882797 9.02113e-06 -5.16551e-05)
(0.882852 7.10625e-06 -2.32757e-05)
(0.88287 5.45052e-06 -1.10194e-05)
(0.882884 4.06304e-06 -5.59542e-06)
(0.882644 2.12257e-05 -0.000456061)
(0.882533 1.90741e-05 -0.000363692)
(0.882613 1.571e-05 -0.000143266)
(0.882795 1.23542e-05 -5.20558e-05)
(0.88285 9.4611e-06 -2.35453e-05)
(0.882869 7.08562e-06 -1.11986e-05)
(0.882883 5.17679e-06 -5.71305e-06)
(0.882642 3.12641e-05 -0.000457813)
(0.882529 2.76114e-05 -0.00036521)
(0.882609 2.17202e-05 -0.000144346)
(0.882791 1.62752e-05 -5.27438e-05)
(0.882847 1.19818e-05 -2.39721e-05)
(0.882866 8.68873e-06 -1.14644e-05)
(0.882881 6.18047e-06 -5.87825e-06)
(0.882638 4.68496e-05 -0.000461704)
(0.882523 4.04212e-05 -0.000368496)
(0.882601 2.96681e-05 -0.000146466)
(0.882785 2.07925e-05 -5.3945e-05)
(0.882842 1.45514e-05 -2.46467e-05)
(0.882863 1.01224e-05 -1.18519e-05)
(0.882879 6.9547e-06 -6.10333e-06)
(0.88263 7.85025e-05 -0.000470867)
(0.88251 6.50986e-05 -0.000375968)
(0.882588 4.17059e-05 -0.000150692)
(0.882775 2.59279e-05 -5.60266e-05)
(0.882836 1.69567e-05 -2.56988e-05)