/*--------------------------------*- C++ -*----------------------------------*\
  =========                 |
  \\      /  F ield         | OpenFOAM: The Open Source CFD Toolbox
   \\    /   O peration     | Website:  https://openfoam.org
    \\  /    A nd           | Version:  7
     \\/     M anipulation  |
\*---------------------------------------------------------------------------*/
FoamFile
{
    version     2.0;
    format      ascii;
    class       volVectorField;
    object      U;
}
// * * * * * * * * * * * * * * * * * * * * * * * * * * * * * * * * * * * * * //

dimensions      [0 1 -1 0 0 0 0];

internalField   uniform (0 0 0);

boundaryField
{
    movingWall
    {
        type            movingWallVelocity;
        value           uniform (1.5 0 0);
    }

    fixedWall
    {
        type            noSlip;
    }

    front
    {
        type            zeroGradient;
    }
    
    back
    {
        type            zeroGradient;
    }
    
    left
    {
        type            zeroGradient;
    }
    
    right
    {
        type            zeroGradient;
    }
    
    fronti
    {
        type            fixedValue;
        value           nonuniform ((0.0 0.0 0.0) (0.0 0.0 0.0) (0.0 0.0 0.0) (0.0 0.0 0.0)
        			(0.0 0.0 0.0) (0.0 0.0 0.0) (0.0 0.0 0.0) (0.0 0.0 0.0)
        			(0.0 0.0 0.0) (0.0 0.0 0.0) (0.0 0.0 0.0) (0.0 0.0 0.0)
        			(0.0 0.0 0.0) (0.0 0.0 0.0) (0.0 0.0 0.0) (0.0 0.0 0.0)
        			(0.0 0.0 0.0) (0.0 0.0 0.0) (0.0 0.0 0.0) (0.0 0.0 0.0)
        			(0.0 0.0 0.0) (0.0 0.0 0.0) (0.0 0.0 0.0) (0.0 0.0 0.0)
        			(0.0 0.0 0.0) (0.0 0.0 0.0) (0.0 0.0 0.0) (0.0 0.0 0.0)
        			(0.0 0.0 0.0) (0.0 0.0 0.0) (0.0 0.0 0.0) (0.0 0.0 0.0)
        			(0.0 0.0 0.0) (0.0 0.0 0.0) (0.0 0.0 0.0) (0.0 0.0 0.0));
    }
    
    backi
    {
        type            fixedValue;
        value           nonuniform ((0.0 0.0 0.0) (0.0 0.0 0.0) (0.0 0.0 0.0) (0.0 0.0 0.0)
        			(0.0 0.0 0.0) (0.0 0.0 0.0) (0.0 0.0 0.0) (0.0 0.0 0.0)
        			(0.0 0.0 0.0) (0.0 0.0 0.0) (0.0 0.0 0.0) (0.0 0.0 0.0)
        			(0.0 0.0 0.0) (0.0 0.0 0.0) (0.0 0.0 0.0) (0.0 0.0 0.0)
        			(0.0 0.0 0.0) (0.0 0.0 0.0) (0.0 0.0 0.0) (0.0 0.0 0.0)
        			(0.0 0.0 0.0) (0.0 0.0 0.0) (0.0 0.0 0.0) (0.0 0.0 0.0)
        			(0.0 0.0 0.0) (0.0 0.0 0.0) (0.0 0.0 0.0) (0.0 0.0 0.0)
        			(0.0 0.0 0.0) (0.0 0.0 0.0) (0.0 0.0 0.0) (0.0 0.0 0.0)
        			(0.0 0.0 0.0) (0.0 0.0 0.0) (0.0 0.0 0.0) (0.0 0.0 0.0));
    }
    
    lefti
    {
        type            fixedValue;
        value           nonuniform ((0.0 0.0 0.0) (0.0 0.0 0.0) (0.0 0.0 0.0) (0.0 0.0 0.0)
        			(0.0 0.0 0.0) (0.0 0.0 0.0) (0.0 0.0 0.0) (0.0 0.0 0.0)
        			(0.0 0.0 0.0) (0.0 0.0 0.0) (0.0 0.0 0.0) (0.0 0.0 0.0)
        			(0.0 0.0 0.0) (0.0 0.0 0.0) (0.0 0.0 0.0) (0.0 0.0 0.0)
        			(0.0 0.0 0.0) (0.0 0.0 0.0) (0.0 0.0 0.0) (0.0 0.0 0.0)
        			(0.0 0.0 0.0) (0.0 0.0 0.0) (0.0 0.0 0.0) (0.0 0.0 0.0)
        			(0.0 0.0 0.0) (0.0 0.0 0.0) (0.0 0.0 0.0) (0.0 0.0 0.0)
        			(0.0 0.0 0.0) (0.0 0.0 0.0) (0.0 0.0 0.0) (0.0 0.0 0.0)
        			(0.0 0.0 0.0) (0.0 0.0 0.0) (0.0 0.0 0.0) (0.0 0.0 0.0));
    }
    
    righti
    {
        type            fixedValue;
        value           nonuniform ((0.0 0.0 0.0) (0.0 0.0 0.0) (0.0 0.0 0.0) (0.0 0.0 0.0)
        			(0.0 0.0 0.0) (0.0 0.0 0.0) (0.0 0.0 0.0) (0.0 0.0 0.0)
        			(0.0 0.0 0.0) (0.0 0.0 0.0) (0.0 0.0 0.0) (0.0 0.0 0.0)
        			(0.0 0.0 0.0) (0.0 0.0 0.0) (0.0 0.0 0.0) (0.0 0.0 0.0)
        			(0.0 0.0 0.0) (0.0 0.0 0.0) (0.0 0.0 0.0) (0.0 0.0 0.0)
        			(0.0 0.0 0.0) (0.0 0.0 0.0) (0.0 0.0 0.0) (0.0 0.0 0.0)
        			(0.0 0.0 0.0) (0.0 0.0 0.0) (0.0 0.0 0.0) (0.0 0.0 0.0)
        			(0.0 0.0 0.0) (0.0 0.0 0.0) (0.0 0.0 0.0) (0.0 0.0 0.0)
        			(0.0 0.0 0.0) (0.0 0.0 0.0) (0.0 0.0 0.0) (0.0 0.0 0.0));
    }
    
    topi
    {
        type            fixedValue;
        value           nonuniform ((0.0 0.0 0.0) (0.0 0.0 0.0) (0.0 0.0 0.0) (0.0 0.0 0.0)
        			(0.0 0.0 0.0) (0.0 0.0 0.0) (0.0 0.0 0.0) (0.0 0.0 0.0)
        			(0.0 0.0 0.0) (0.0 0.0 0.0) (0.0 0.0 0.0) (0.0 0.0 0.0)
        			(0.0 0.0 0.0) (0.0 0.0 0.0) (0.0 0.0 0.0) (0.0 0.0 0.0)
        			(0.0 0.0 0.0) (0.0 0.0 0.0) (0.0 0.0 0.0) (0.0 0.0 0.0)
        			(0.0 0.0 0.0) (0.0 0.0 0.0) (0.0 0.0 0.0) (0.0 0.0 0.0)
        			(0.0 0.0 0.0) (0.0 0.0 0.0) (0.0 0.0 0.0) (0.0 0.0 0.0)
        			(0.0 0.0 0.0) (0.0 0.0 0.0) (0.0 0.0 0.0) (0.0 0.0 0.0)
        			(0.0 0.0 0.0) (0.0 0.0 0.0) (0.0 0.0 0.0) (0.0 0.0 0.0));
    }
    
    buttomi
    {
        type            fixedValue;
        value           nonuniform ((0.0 0.0 0.0) (0.0 0.0 0.0) (0.0 0.0 0.0) (0.0 0.0 0.0)
        			(0.0 0.0 0.0) (0.0 0.0 0.0) (0.0 0.0 0.0) (0.0 0.0 0.0)
        			(0.0 0.0 0.0) (0.0 0.0 0.0) (0.0 0.0 0.0) (0.0 0.0 0.0)
        			(0.0 0.0 0.0) (0.0 0.0 0.0) (0.0 0.0 0.0) (0.0 0.0 0.0)
        			(0.0 0.0 0.0) (0.0 0.0 0.0) (0.0 0.0 0.0) (0.0 0.0 0.0)
        			(0.0 0.0 0.0) (0.0 0.0 0.0) (0.0 0.0 0.0) (0.0 0.0 0.0)
        			(0.0 0.0 0.0) (0.0 0.0 0.0) (0.0 0.0 0.0) (0.0 0.0 0.0)
        			(0.0 0.0 0.0) (0.0 0.0 0.0) (0.0 0.0 0.0) (0.0 0.0 0.0)
        			(0.0 0.0 0.0) (0.0 0.0 0.0) (0.0 0.0 0.0) (0.0 0.0 0.0));
    }
}

// ************************************************************************* //
