/*--------------------------------*- C++ -*----------------------------------*\
  =========                 |
  \\      /  F ield         | OpenFOAM: The Open Source CFD Toolbox
   \\    /   O peration     | Website:  https://openfoam.org
    \\  /    A nd           | Version:  7
     \\/     M anipulation  |
\*---------------------------------------------------------------------------*/
FoamFile
{
    version     2.0;
    format      ascii;
    class       volScalarField;
    location    "3.75";
    object      p;
}
// * * * * * * * * * * * * * * * * * * * * * * * * * * * * * * * * * * * * * //

dimensions      [0 2 -2 0 0 0 0];

internalField   nonuniform List<scalar> 
7784
(
5.6855e-12
-0.00014001
-0.00033964
-0.000508369
-0.000629664
-0.000717293
-0.000784719
-1.80644e-05
-0.000168459
-0.000363895
-0.000521768
-0.000635629
-0.000719814
-0.000785694
-6.03263e-05
-0.000205164
-0.00038828
-0.000535298
-0.000642776
-0.000723605
-0.000787559
-8.96854e-05
-0.000229445
-0.000405147
-0.000545836
-0.000649102
-0.00072719
-0.000789582
-0.000108556
-0.000245568
-0.000417165
-0.000554014
-0.000654397
-0.000730644
-0.000791495
-0.000121128
-0.000256612
-0.000425746
-0.000560147
-0.000658562
-0.000733401
-0.000793141
-0.000129285
-0.000263907
-0.00043161
-0.000564522
-0.000661666
-0.000735539
-0.000794472
-0.000183446
-0.000314942
-0.000470174
-0.000589392
-0.000675853
-0.000743474
-0.000799734
-0.000197824
-0.000335175
-0.000485375
-0.000596987
-0.000678816
-0.000744454
-0.000799718
-0.000223133
-0.00035652
-0.000498887
-0.000604183
-0.000682582
-0.000746414
-0.00080053
-0.000240981
-0.000370688
-0.000508457
-0.000610154
-0.000686302
-0.000748765
-0.000801691
-0.000253048
-0.000380778
-0.000515921
-0.000615257
-0.000689647
-0.000750713
-0.000802845
-0.000261681
-0.00038831
-0.000521765
-0.000619444
-0.000692507
-0.000752534
-0.000803945
-0.000267617
-0.00039362
-0.00052604
-0.000622636
-0.000694776
-0.000754037
-0.000804891
-0.000354094
-0.00045151
-0.000560786
-0.000646695
-0.000713408
-0.000768897
-0.000816959
-0.00036161
-0.000461139
-0.000567114
-0.000649308
-0.000713867
-0.000768451
-0.000816107
-0.000374324
-0.00047191
-0.000574008
-0.000653002
-0.00071573
-0.000769285
-0.000816255
-0.000384357
-0.000480143
-0.000579776
-0.000656693
-0.000718036
-0.000770656
-0.000816896
-0.00039183
-0.000486591
-0.000584661
-0.000660078
-0.000720272
-0.000772029
-0.000817633
-0.000397509
-0.000491697
-0.00058871
-0.000663018
-0.000722299
-0.000773341
-0.00081839
-0.000401586
-0.000495466
-0.000591811
-0.000665361
-0.000723978
-0.000774469
-0.000819074
-0.000838996
-0.000885191
-0.000927247
-0.000968005
-0.00100998
-0.00105573
-0.000839055
-0.000884794
-0.000926611
-0.000967188
-0.00100891
-0.00105428
-0.000839723
-0.000884764
-0.000926168
-0.000966413
-0.00100776
-0.00105266
-0.000840646
-0.000884967
-0.000925897
-0.000965737
-0.00100666
-0.00105103
-0.000841594
-0.00088525
-0.000925714
-0.000965145
-0.00100565
-0.00104951
-0.00084247
-0.000885558
-0.000925599
-0.000964652
-0.00100477
-0.0010482
-0.000843214
-0.000885861
-0.000925534
-0.000964263
-0.00100406
-0.00104713
-0.000848081
-0.00089112
-0.000931268
-0.000970775
-0.00101182
-0.00105628
-0.000847549
-0.000890336
-0.000930404
-0.00096984
-0.00101066
-0.00105503
-0.000847633
-0.000889995
-0.000929779
-0.00096897
-0.00100948
-0.00105345
-0.000848068
-0.000889947
-0.000929357
-0.000968218
-0.00100837
-0.00105188
-0.00084859
-0.000890008
-0.000929033
-0.000967554
-0.00100735
-0.00105042
-0.000849133
-0.00089013
-0.000928798
-0.000966998
-0.00100646
-0.00104915
-0.000849627
-0.000890258
-0.000928632
-0.000966556
-0.00100574
-0.00104811
-0.000859392
-0.000898015
-0.000934639
-0.000970946
-0.0010086
-0.00104922
-0.000858358
-0.000896955
-0.000933629
-0.000969968
-0.00100758
-0.00104812
-0.000858064
-0.000896398
-0.0009329
-0.000969079
-0.00100645
-0.00104672
-0.000858189
-0.000896164
-0.00093239
-0.000968318
-0.00100542
-0.0010453
-0.000858443
-0.000896053
-0.000931984
-0.000967642
-0.00100445
-0.00104397
-0.000858762
-0.000896032
-0.000931678
-0.000967072
-0.00100361
-0.00104281
-0.000859083
-0.000896057
-0.000931455
-0.000966618
-0.00100292
-0.00104185
-0.00110863
-0.00117354
-0.0012565
-0.0013639
-0.00149745
-0.00162469
-0.0015879
-0.00110665
-0.0011705
-0.00125158
-0.00135546
-0.00148489
-0.00161664
-0.00159192
-0.00110422
-0.00116678
-0.00124581
-0.0013462
-0.00147104
-0.00159777
-0.00157077
-0.00110184
-0.00116329
-0.00124065
-0.00133859
-0.00146029
-0.00158377
-0.00155499
-0.00109965
-0.00116022
-0.00123634
-0.0013326
-0.00145229
-0.00157393
-0.00154425
-0.0010978
-0.00115767
-0.0012329
-0.00132803
-0.00144645
-0.00156696
-0.00153672
-0.00109632
-0.00115567
-0.00123029
-0.0013247
-0.00144233
-0.00156219
-0.00153161
-0.00110739
-0.00116842
-0.00124257
-0.00133135
-0.00143616
-0.00153476
-0.00152663
-0.00110569
-0.00116587
-0.00123852
-0.00132434
-0.00142539
-0.00152681
-0.00152672
-0.00110345
-0.00116258
-0.00123371
-0.00131738
-0.00141448
-0.0015127
-0.00151232
-0.00110123
-0.00115945
-0.00122929
-0.00131128
-0.00140614
-0.00150246
-0.00150152
-0.00109919
-0.00115666
-0.0012255
-0.00130624
-0.00139973
-0.00149505
-0.0014939
-0.00109744
-0.0011543
-0.0012224
-0.00130226
-0.00139484
-0.00148948
-0.00148818
-0.00109603
-0.00115242
-0.00122001
-0.00129928
-0.00139128
-0.0014855
-0.00148408
-0.00109499
-0.00114799
-0.00120935
-0.00127922
-0.00135605
-0.00142314
-0.00142586
-0.00109359
-0.00114601
-0.00120638
-0.00127426
-0.00134866
-0.00141672
-0.00142184
-0.00109167
-0.00114331
-0.00120259
-0.00126887
-0.00134088
-0.00140741
-0.00141309
-0.00108972
-0.0011406
-0.00119895
-0.00126406
-0.00133466
-0.00140031
-0.00140628
-0.00108792
-0.00113818
-0.00119576
-0.00125998
-0.00132967
-0.00139484
-0.00140105
-0.00108637
-0.00113614
-0.00119312
-0.00125668
-0.00132574
-0.00139056
-0.0013969
-0.0010851
-0.00113451
-0.00119104
-0.00125415
-0.00132279
-0.00138739
-0.0013938
-0.000134374
-0.000268543
-0.000435454
-0.000567492
-0.000663848
-0.000737095
-0.000795466
-0.000137332
-0.000271283
-0.000437779
-0.000569333
-0.000665231
-0.000738099
-0.000796122
-0.000138694
-0.000272556
-0.000438875
-0.000570213
-0.000665902
-0.00073859
-0.000796448
-0.000138692
-0.000272555
-0.000438873
-0.000570212
-0.000665901
-0.000738589
-0.000796447
-0.000137328
-0.000271278
-0.000437775
-0.00056933
-0.000665229
-0.000738097
-0.000796121
-0.000134366
-0.000268535
-0.000435447
-0.000567486
-0.000663843
-0.000737091
-0.000795463
-0.000271469
-0.000397151
-0.000528978
-0.000624905
-0.000696439
-0.000755165
-0.000805625
-0.000273768
-0.000399301
-0.000530811
-0.000626355
-0.000697524
-0.000755919
-0.000806122
-0.000274841
-0.000400318
-0.000531689
-0.000627059
-0.000698057
-0.000756294
-0.000806372
-0.00027484
-0.000400317
-0.000531688
-0.000627058
-0.000698056
-0.000756293
-0.000806371
-0.000273764
-0.000399298
-0.000530807
-0.000626352
-0.000697521
-0.000755917
-0.000806121
-0.000271463
-0.000397145
-0.000528972
-0.000624901
-0.000696435
-0.000755163
-0.000805623
-0.000404319
-0.00049806
-0.000594013
-0.000667079
-0.000725244
-0.000775341
-0.00081962
-0.000405985
-0.000499675
-0.000595416
-0.000668197
-0.000726084
-0.00077593
-0.000819997
-0.000406772
-0.000500449
-0.000596097
-0.000668746
-0.000726501
-0.000776226
-0.000820188
-0.000406771
-0.000500448
-0.000596096
-0.000668745
-0.0007265
-0.000776226
-0.000820188
-0.000405982
-0.000499672
-0.000595413
-0.000668194
-0.000726082
-0.000775929
-0.000819995
-0.000404313
-0.000498055
-0.000594009
-0.000667075
-0.000725241
-0.000775338
-0.000819618
-0.000843787
-0.000886108
-0.000925497
-0.000963976
-0.00100353
-0.00104633
-0.000844171
-0.000886264
-0.000925474
-0.000963785
-0.00100317
-0.0010458
-0.000844363
-0.000886346
-0.000925464
-0.000963691
-0.00100299
-0.00104553
-0.000844363
-0.000886345
-0.000925463
-0.00096369
-0.00100299
-0.00104553
-0.00084417
-0.000886263
-0.000925473
-0.000963784
-0.00100317
-0.0010458
-0.000843785
-0.000886107
-0.000925495
-0.000963974
-0.00100353
-0.00104633
-0.000850024
-0.000890375
-0.00092852
-0.000966229
-0.00100519
-0.00104733
-0.000850302
-0.000890475
-0.000928453
-0.000966013
-0.00100483
-0.0010468
-0.000850444
-0.000890526
-0.000928421
-0.000965906
-0.00100465
-0.00104654
-0.000850443
-0.000890525
-0.000928421
-0.000965905
-0.00100464
-0.00104654
-0.000850301
-0.000890474
-0.000928452
-0.000966012
-0.00100483
-0.0010468
-0.000850023
-0.000890374
-0.000928519
-0.000966227
-0.00100519
-0.00104732
-0.000859355
-0.0008961
-0.000931301
-0.000966281
-0.00100239
-0.00104112
-0.000859551
-0.000896141
-0.000931205
-0.000966058
-0.00100204
-0.00104064
-0.000859652
-0.000896165
-0.000931159
-0.000965947
-0.00100187
-0.00104039
-0.000859651
-0.000896164
-0.000931159
-0.000965947
-0.00100187
-0.00104039
-0.00085955
-0.00089614
-0.000931204
-0.000966057
-0.00100204
-0.00104064
-0.000859354
-0.000896098
-0.000931299
-0.000966279
-0.00100239
-0.00104112
-0.00109521
-0.0011542
-0.00122842
-0.00132238
-0.00143955
-0.00155904
-0.0015283
-0.00109448
-0.00115324
-0.00122722
-0.00132092
-0.00143784
-0.00155714
-0.00152631
-0.00109412
-0.00115277
-0.00122663
-0.00132021
-0.00143702
-0.00155623
-0.00152537
-0.00109412
-0.00115277
-0.00122663
-0.00132021
-0.00143702
-0.00155623
-0.00152537
-0.00109448
-0.00115324
-0.00122722
-0.00132091
-0.00143783
-0.00155713
-0.0015263
-0.00109521
-0.00115419
-0.00122841
-0.00132237
-0.00143954
-0.00155904
-0.00152829
-0.00109497
-0.00115104
-0.00121829
-0.00129718
-0.00138882
-0.0014828
-0.00148132
-0.00109427
-0.00115014
-0.00121717
-0.00129584
-0.00138728
-0.00148112
-0.00147962
-0.00109392
-0.0011497
-0.00121663
-0.00129519
-0.00138654
-0.00148032
-0.00147881
-0.00109392
-0.0011497
-0.00121663
-0.00129519
-0.00138654
-0.00148032
-0.00147881
-0.00109427
-0.00115014
-0.00121717
-0.00129583
-0.00138728
-0.00148112
-0.00147962
-0.00109497
-0.00115104
-0.00121828
-0.00129717
-0.00138881
-0.00148279
-0.00148131
-0.00108415
-0.0011333
-0.00118953
-0.00125234
-0.00132072
-0.00138518
-0.00139165
-0.00108351
-0.0011325
-0.00118854
-0.00125118
-0.00131941
-0.00138379
-0.00139029
-0.0010832
-0.0011321
-0.00118805
-0.00125061
-0.00131877
-0.00138312
-0.00138964
-0.0010832
-0.0011321
-0.00118805
-0.00125061
-0.00131877
-0.00138312
-0.00138964
-0.00108351
-0.0011325
-0.00118853
-0.00125118
-0.0013194
-0.00138379
-0.00139029
-0.00108415
-0.0011333
-0.00118952
-0.00125234
-0.00132072
-0.00138518
-0.00139164
-0.000129275
-0.000263896
-0.000431601
-0.000564514
-0.000661659
-0.000735534
-0.000794468
-0.000121114
-0.000256598
-0.000425734
-0.000560137
-0.000658554
-0.000733394
-0.000793136
-0.000108538
-0.000245551
-0.000417151
-0.000554002
-0.000654388
-0.000730636
-0.00079149
-8.96626e-05
-0.000229426
-0.000405131
-0.000545823
-0.000649091
-0.000727182
-0.000789577
-6.03002e-05
-0.000205141
-0.000388263
-0.000535285
-0.000642766
-0.000723598
-0.000787554
-1.80347e-05
-0.000168434
-0.000363879
-0.000521757
-0.000635622
-0.000719809
-0.000785692
2.80909e-08
-0.000139987
-0.000339628
-0.000508364
-0.000629661
-0.000717292
-0.00078472
-0.000267608
-0.000393611
-0.000526032
-0.00062263
-0.000694771
-0.000754033
-0.000804888
-0.000261667
-0.000388297
-0.000521755
-0.000619436
-0.000692501
-0.000752529
-0.000803941
-0.00025303
-0.000380763
-0.000515909
-0.000615248
-0.00068964
-0.000750708
-0.000802842
-0.000240957
-0.000370669
-0.000508443
-0.000610143
-0.000686294
-0.00074876
-0.000801688
-0.000223101
-0.000356495
-0.000498871
-0.000604172
-0.000682575
-0.000746409
-0.000800527
-0.000197788
-0.000335147
-0.000485358
-0.000596978
-0.000678811
-0.000744452
-0.000799717
-0.000183409
-0.000314914
-0.000470162
-0.000589388
-0.000675853
-0.000743476
-0.000799738
-0.000401578
-0.000495459
-0.000591805
-0.000665356
-0.000723974
-0.000774466
-0.000819071
-0.000397498
-0.000491687
-0.000588702
-0.000663011
-0.000722294
-0.000773337
-0.000818387
-0.000391814
-0.000486578
-0.000584651
-0.000660071
-0.000720266
-0.000772025
-0.00081763
-0.000384335
-0.000480127
-0.000579764
-0.000656685
-0.00071803
-0.000770652
-0.000816893
-0.000374294
-0.000471889
-0.000573995
-0.000652993
-0.000715724
-0.000769282
-0.000816253
-0.000361574
-0.000461115
-0.000567102
-0.000649302
-0.000713864
-0.000768451
-0.000816108
-0.000354059
-0.000451488
-0.000560779
-0.000646695
-0.000713411
-0.000768901
-0.000816964
-0.000843211
-0.000885859
-0.000925532
-0.000964261
-0.00100406
-0.00104713
-0.000842467
-0.000885555
-0.000925597
-0.00096465
-0.00100477
-0.00104819
-0.00084159
-0.000885248
-0.000925712
-0.000965143
-0.00100565
-0.00104951
-0.000840642
-0.000884965
-0.000925895
-0.000965735
-0.00100666
-0.00105102
-0.000839721
-0.000884762
-0.000926167
-0.000966411
-0.00100776
-0.00105265
-0.000839054
-0.000884793
-0.000926611
-0.000967186
-0.0010089
-0.00105427
-0.000838997
-0.000885192
-0.000927249
-0.000968005
-0.00100998
-0.00105573
-0.000849624
-0.000890256
-0.00092863
-0.000966554
-0.00100573
-0.00104811
-0.00084913
-0.000890128
-0.000928796
-0.000966996
-0.00100646
-0.00104914
-0.000848587
-0.000890006
-0.000929032
-0.000967552
-0.00100734
-0.00105042
-0.000848066
-0.000889946
-0.000929356
-0.000968217
-0.00100837
-0.00105188
-0.000847632
-0.000889994
-0.000929779
-0.000968969
-0.00100948
-0.00105345
-0.000847549
-0.000890337
-0.000930405
-0.000969839
-0.00101065
-0.00105502
-0.000848085
-0.000891124
-0.000931271
-0.000970777
-0.00101182
-0.00105628
-0.000859081
-0.000896055
-0.000931453
-0.000966616
-0.00100291
-0.00104185
-0.00085876
-0.00089603
-0.000931676
-0.00096707
-0.00100361
-0.0010428
-0.000858441
-0.000896052
-0.000931983
-0.00096764
-0.00100445
-0.00104397
-0.000858188
-0.000896163
-0.000932389
-0.000968317
-0.00100542
-0.00104529
-0.000858063
-0.000896398
-0.0009329
-0.000969079
-0.00100646
-0.00104671
-0.00085836
-0.000896957
-0.00093363
-0.000969969
-0.00100757
-0.00104812
-0.000859397
-0.00089802
-0.000934643
-0.000970949
-0.0010086
-0.00104922
-0.00109631
-0.00115566
-0.00123028
-0.00132469
-0.00144232
-0.00156217
-0.0015316
-0.0010978
-0.00115767
-0.00123289
-0.00132802
-0.00144643
-0.00156695
-0.0015367
-0.00109965
-0.00116022
-0.00123633
-0.00133258
-0.00145228
-0.00157391
-0.00154423
-0.00110183
-0.00116328
-0.00124064
-0.00133857
-0.00146027
-0.00158374
-0.00155496
-0.00110421
-0.00116677
-0.0012458
-0.00134618
-0.00147102
-0.00159774
-0.00157073
-0.00110664
-0.00117049
-0.00125156
-0.00135544
-0.00148486
-0.0016166
-0.00159188
-0.00110862
-0.00117353
-0.00125648
-0.00136388
-0.00149742
-0.00162465
-0.00158785
-0.00109602
-0.00115242
-0.00122001
-0.00129927
-0.00139127
-0.00148549
-0.00148407
-0.00109744
-0.00115429
-0.0012224
-0.00130225
-0.00139483
-0.00148947
-0.00148817
-0.00109919
-0.00115665
-0.00122549
-0.00130622
-0.00139972
-0.00149503
-0.00149388
-0.00110122
-0.00115944
-0.00122928
-0.00131126
-0.00140613
-0.00150244
-0.00150149
-0.00110344
-0.00116257
-0.0012337
-0.00131736
-0.00141446
-0.00151268
-0.00151228
-0.00110569
-0.00116586
-0.00123851
-0.00132432
-0.00142537
-0.00152678
-0.00152668
-0.00110739
-0.00116841
-0.00124255
-0.00133133
-0.00143614
-0.00153473
-0.00152659
-0.0010851
-0.00113451
-0.00119104
-0.00125415
-0.00132279
-0.00138738
-0.00139379
-0.00108637
-0.00113614
-0.00119311
-0.00125667
-0.00132573
-0.00139055
-0.00139688
-0.00108792
-0.00113818
-0.00119575
-0.00125997
-0.00132966
-0.00139482
-0.00140103
-0.00108971
-0.00114059
-0.00119894
-0.00126405
-0.00133465
-0.00140029
-0.00140626
-0.00109166
-0.0011433
-0.00120258
-0.00126885
-0.00134086
-0.00140739
-0.00141307
-0.00109358
-0.00114601
-0.00120637
-0.00127425
-0.00134864
-0.00141669
-0.0014218
-0.00109499
-0.00114799
-0.00120934
-0.00127921
-0.00135603
-0.00142311
-0.00142582
-0.00051254
-0.000569492
-0.000639438
-0.000700824
-0.000752249
-0.000796814
-0.00083641
-0.00051391
-0.00057197
-0.000641097
-0.00070103
-0.000751459
-0.000795625
-0.000835109
-0.000518955
-0.000576794
-0.00064445
-0.000702763
-0.000752124
-0.000795669
-0.000834762
-0.000524055
-0.000581417
-0.000647894
-0.00070497
-0.000753426
-0.000796338
-0.000834959
-0.000528242
-0.000585289
-0.000650946
-0.000707099
-0.000754804
-0.000797139
-0.000835315
-0.000531584
-0.000588482
-0.000653576
-0.000709037
-0.000756133
-0.000797974
-0.000835752
-0.000534083
-0.000590938
-0.000655671
-0.000710644
-0.000757286
-0.000798735
-0.000836185
-0.00064881
-0.000674347
-0.000714465
-0.000755249
-0.0007921
-0.000825649
-0.000856561
-0.000647237
-0.000673262
-0.00071376
-0.000754109
-0.000790536
-0.000824005
-0.000855006
-0.000648304
-0.000674784
-0.000714892
-0.000754455
-0.000790321
-0.000823486
-0.000854319
-0.000650344
-0.000676974
-0.000716615
-0.000755502
-0.000790838
-0.000823624
-0.00085418
-0.00065224
-0.000678958
-0.000718273
-0.000756652
-0.000791536
-0.000823961
-0.000854235
-0.00065387
-0.000680703
-0.000719797
-0.000757789
-0.000792297
-0.000824402
-0.000854411
-0.000655164
-0.00068212
-0.000721074
-0.000758785
-0.000793006
-0.000824849
-0.000854633
-0.000761814
-0.000765854
-0.000784012
-0.000807687
-0.000831355
-0.000854501
-0.000876938
-0.000759422
-0.000763191
-0.000782051
-0.000805769
-0.000829383
-0.000852664
-0.000875309
-0.000758531
-0.000762821
-0.000781751
-0.000805181
-0.000828594
-0.000851799
-0.000874427
-0.000758736
-0.000763396
-0.00078225
-0.000805385
-0.000828544
-0.000851563
-0.000874057
-0.000759157
-0.000764084
-0.000782909
-0.000805819
-0.000828737
-0.000851557
-0.000873891
-0.000759641
-0.000764805
-0.000783624
-0.000806356
-0.000829064
-0.000851694
-0.000873867
-0.000760093
-0.000765458
-0.000784281
-0.000806879
-0.000829421
-0.000851892
-0.000873921
-0.000854716
-0.000843961
-0.000846189
-0.000856343
-0.000868824
-0.000882624
-0.000897087
-0.000852377
-0.000840782
-0.000843733
-0.000854146
-0.000866763
-0.000880798
-0.000895515
-0.000850625
-0.000839447
-0.000842662
-0.000853053
-0.000865673
-0.000879764
-0.000894551
-0.00084983
-0.000839062
-0.000842392
-0.000852714
-0.000865255
-0.000879288
-0.000894036
-0.000849385
-0.000838935
-0.000842384
-0.00085266
-0.0008651
-0.000879042
-0.000893718
-0.000849153
-0.000838977
-0.000842539
-0.000852771
-0.000865112
-0.000878956
-0.000893548
-0.000849056
-0.000839105
-0.000842752
-0.000852944
-0.000865205
-0.000878964
-0.000893474
-0.000931395
-0.000909614
-0.000900457
-0.000900237
-0.000903514
-0.000909163
-0.000916371
-0.000929321
-0.000906478
-0.000898001
-0.000898114
-0.000901569
-0.000907465
-0.000914927
-0.000927311
-0.000904788
-0.000896635
-0.000896841
-0.000900382
-0.00090639
-0.000913963
-0.000926053
-0.000903921
-0.00089596
-0.000896204
-0.000899759
-0.000905783
-0.000913376
-0.000925169
-0.000903347
-0.000895561
-0.00089584
-0.00089938
-0.000905387
-0.000912966
-0.000924547
-0.000902995
-0.000895359
-0.000895662
-0.000899178
-0.000905153
-0.0009127
-0.000924128
-0.000902799
-0.000895274
-0.000895593
-0.000899086
-0.000905027
-0.000912536
-0.000992006
-0.000964384
-0.000947079
-0.000938947
-0.000934773
-0.000933487
-0.000934281
-0.000990701
-0.000961566
-0.000944873
-0.000937066
-0.000933045
-0.000931981
-0.000933004
-0.00098886
-0.00095988
-0.000943497
-0.000935811
-0.000931891
-0.00093095
-0.000932095
-0.000987521
-0.000958851
-0.000942662
-0.000935052
-0.000931186
-0.000930298
-0.000931493
-0.000986508
-0.000958091
-0.000942067
-0.000934524
-0.000930691
-0.000929827
-0.000931042
-0.00098574
-0.000957552
-0.000941667
-0.000934177
-0.000930363
-0.000929506
-0.000930722
-0.000985179
-0.000957184
-0.000941408
-0.000933959
-0.000930157
-0.000929297
-0.000930503
-0.000872167
-0.000905339
-0.000937185
-0.000968882
-0.00100156
-0.00103633
-0.000870887
-0.000904166
-0.000936148
-0.000967956
-0.0010007
-0.00103549
-0.000870308
-0.000903465
-0.000935377
-0.000967115
-0.000999741
-0.00103434
-0.000870169
-0.000903091
-0.00093482
-0.000966386
-0.000998813
-0.00103315
-0.000870188
-0.000902852
-0.00093437
-0.000965737
-0.000997944
-0.00103201
-0.000870308
-0.00090272
-0.000934023
-0.000965187
-0.000997181
-0.001031
-0.00087047
-0.000902657
-0.000933766
-0.000964748
-0.000996552
-0.00103016
-0.000885272
-0.000912432
-0.00093878
-0.000965035
-0.000991856
-0.00101986
-0.000883873
-0.000911226
-0.000937769
-0.000964191
-0.000991149
-0.00101924
-0.000883108
-0.000910446
-0.000936999
-0.000963423
-0.000990348
-0.00101836
-0.000882775
-0.00090998
-0.00093643
-0.000962754
-0.000989557
-0.0010174
-0.000882615
-0.000909653
-0.000935964
-0.000962154
-0.000988807
-0.00101646
-0.000882576
-0.000909439
-0.000935599
-0.000961644
-0.000988143
-0.00101562
-0.000882607
-0.000909309
-0.000935326
-0.000961234
-0.000987592
-0.00101491
-0.000898512
-0.000919381
-0.000939847
-0.000960235
-0.00098082
-0.00100181
-0.000897111
-0.000918213
-0.000938901
-0.000959483
-0.000980239
-0.00100136
-0.000896253
-0.000917411
-0.000938162
-0.000958796
-0.000979579
-0.00100069
-0.000895793
-0.000916893
-0.000937603
-0.000958195
-0.000978918
-0.000999943
-0.000895505
-0.00091651
-0.000937141
-0.000957653
-0.000978285
-0.000999198
-0.000895347
-0.000916241
-0.000936774
-0.000957191
-0.000977721
-0.000998515
-0.000895275
-0.000916061
-0.000936494
-0.000956817
-0.000977248
-0.000997933
-0.000911694
-0.000926255
-0.000940741
-0.000955167
-0.000969509
-0.000983671
-0.00091037
-0.000925172
-0.000939882
-0.000954506
-0.00096903
-0.000983356
-0.000909491
-0.000924388
-0.000939193
-0.000953899
-0.000968487
-0.000982852
-0.000908958
-0.000923852
-0.000938659
-0.000953364
-0.000967938
-0.00098227
-0.000908586
-0.000923439
-0.000938212
-0.000952882
-0.000967411
-0.000981683
-0.000908343
-0.000923135
-0.000937853
-0.000952468
-0.000966936
-0.000981136
-0.000908194
-0.00092292
-0.000937577
-0.000952131
-0.000966536
-0.000980665
-0.000924428
-0.000932919
-0.000941581
-0.000950207
-0.000958573
-0.00096636
-0.000923224
-0.000931943
-0.000940818
-0.000949634
-0.00095817
-0.000966126
-0.000922374
-0.000931207
-0.00094019
-0.000949103
-0.000957721
-0.000965743
-0.000921813
-0.000930678
-0.000939692
-0.000948632
-0.000957265
-0.00096529
-0.000921395
-0.000930257
-0.00093927
-0.000948205
-0.000956827
-0.000964828
-0.0009211
-0.000929936
-0.000938926
-0.000947837
-0.000956428
-0.000964392
-0.000920899
-0.000929701
-0.000938658
-0.000947535
-0.00095609
-0.000964012
-0.00093637
-0.00093921
-0.000942396
-0.000945574
-0.000948385
-0.000950368
-0.000935308
-0.000938352
-0.000941727
-0.000945075
-0.000948031
-0.000950183
-0.000934519
-0.00093768
-0.000941165
-0.000944612
-0.000947656
-0.000949882
-0.000933966
-0.000937177
-0.00094071
-0.000944198
-0.000947277
-0.000949525
-0.000933535
-0.000936766
-0.000940317
-0.000943821
-0.000946909
-0.000949157
-0.000933214
-0.000936444
-0.000939994
-0.000943493
-0.000946572
-0.000948807
-0.000932984
-0.000936202
-0.000939739
-0.000943224
-0.000946286
-0.000948499
-0.00107452
-0.00111698
-0.00116363
-0.00121341
-0.00126376
-0.00130127
-0.00130057
-0.00107352
-0.00111565
-0.00116171
-0.00121036
-0.00125966
-0.00129802
-0.00129723
-0.00107204
-0.00111368
-0.00115907
-0.00120674
-0.00125484
-0.00129288
-0.00129287
-0.00107047
-0.00111159
-0.00115637
-0.0012033
-0.0012506
-0.00128838
-0.00128895
-0.00106898
-0.00110966
-0.00115392
-0.00120027
-0.00124703
-0.00128463
-0.00128558
-0.00106767
-0.00110799
-0.00115182
-0.00119774
-0.0012441
-0.00128158
-0.00128276
-0.00106659
-0.00110663
-0.00115015
-0.00119575
-0.00124184
-0.00127923
-0.00128057
-0.00104961
-0.00108121
-0.00111389
-0.00114621
-0.00117567
-0.00119181
-0.00118323
-0.00104897
-0.00108046
-0.00111288
-0.00114466
-0.00117389
-0.00119102
-0.00118159
-0.00104791
-0.00107913
-0.0011112
-0.00114244
-0.00117112
-0.00118843
-0.00117969
-0.00104672
-0.00107762
-0.00110932
-0.00114014
-0.00116839
-0.00118572
-0.00117756
-0.00104555
-0.00107616
-0.00110753
-0.00113801
-0.00116598
-0.0011833
-0.00117552
-0.00104449
-0.00107486
-0.00110596
-0.00113616
-0.00116392
-0.00118124
-0.00117372
-0.00104361
-0.00107378
-0.00110466
-0.00113467
-0.00116227
-0.00117959
-0.00117226
-0.00102327
-0.00104485
-0.00106551
-0.00108373
-0.00109746
-0.00109861
-0.00108199
-0.00102289
-0.0010445
-0.00106511
-0.00108311
-0.0010969
-0.00109892
-0.00108106
-0.00102216
-0.00104365
-0.00106409
-0.00108185
-0.00109541
-0.00109771
-0.0010803
-0.00102128
-0.00104259
-0.00106283
-0.00108036
-0.00109371
-0.00109614
-0.00107922
-0.00102039
-0.00104153
-0.00106158
-0.00107891
-0.00109212
-0.00109463
-0.00107807
-0.00101957
-0.00104055
-0.00106043
-0.00107761
-0.00109071
-0.00109328
-0.00107698
-0.00101886
-0.00103971
-0.00105946
-0.00107652
-0.00108954
-0.00109216
-0.00107604
-0.000997427
-0.00101018
-0.0010208
-0.00102785
-0.00102973
-0.00101993
-0.000995758
-0.000997226
-0.00101007
-0.00102074
-0.00102774
-0.00102975
-0.00102061
-0.000995007
-0.000996727
-0.00100955
-0.00102017
-0.00102707
-0.00102901
-0.00102016
-0.000994808
-0.000996085
-0.00100882
-0.00101935
-0.00102614
-0.00102799
-0.0010193
-0.000994357
-0.000995419
-0.00100806
-0.00101849
-0.00102517
-0.00102696
-0.0010184
-0.000993771
-0.000994787
-0.00100733
-0.00101767
-0.00102427
-0.00102601
-0.00101754
-0.000993145
-0.000994238
-0.0010067
-0.00101696
-0.0010235
-0.00102521
-0.00101679
-0.000992567
-0.000973173
-0.000978309
-0.000980669
-0.000979037
-0.000972073
-0.00095393
-0.000922227
-0.000973071
-0.000978321
-0.000980771
-0.000979142
-0.000972366
-0.000954802
-0.000921685
-0.00097273
-0.000978004
-0.000980465
-0.000978812
-0.000972041
-0.000954742
-0.000921744
-0.000972263
-0.000977509
-0.000979937
-0.000978243
-0.000971451
-0.000954302
-0.000921606
-0.000971765
-0.000976967
-0.00097935
-0.000977616
-0.00097081
-0.000953772
-0.000921315
-0.000971284
-0.000976436
-0.000978772
-0.000977003
-0.00097019
-0.000953236
-0.000920967
-0.000970858
-0.000975964
-0.000978258
-0.00097646
-0.000969646
-0.000952755
-0.000920623
-0.000951055
-0.000949709
-0.00094532
-0.000936901
-0.000923329
-0.000899092
-0.000864088
-0.000951
-0.000949769
-0.00094547
-0.000937055
-0.000923678
-0.000899935
-0.000863056
-0.000950757
-0.000949573
-0.000945307
-0.000936892
-0.000923538
-0.000900007
-0.000863083
-0.000950412
-0.000949229
-0.000944963
-0.000936542
-0.000923198
-0.000899782
-0.000863041
-0.000950036
-0.00094884
-0.00094456
-0.000936131
-0.000922801
-0.000899472
-0.000862881
-0.000949666
-0.000948448
-0.00094415
-0.000935711
-0.000922396
-0.000899138
-0.000862677
-0.000949335
-0.000948094
-0.000943776
-0.000935329
-0.000922026
-0.000898825
-0.00086247
-0.000535814
-0.00059268
-0.000657201
-0.000711855
-0.000758181
-0.000799345
-0.000836549
-0.000536891
-0.000593789
-0.000658194
-0.000712658
-0.000758786
-0.000799766
-0.000836807
-0.000537407
-0.000594325
-0.000658682
-0.000713057
-0.00075909
-0.00079998
-0.000836941
-0.000537406
-0.000594324
-0.000658681
-0.000713056
-0.000759089
-0.00079998
-0.00083694
-0.000536889
-0.000593786
-0.000658192
-0.000712656
-0.000758784
-0.000799765
-0.000836806
-0.000535809
-0.000592676
-0.000657197
-0.000711852
-0.000758178
-0.000799343
-0.000836547
-0.000656096
-0.000683164
-0.000722038
-0.000759562
-0.000793579
-0.000825229
-0.000854839
-0.000656691
-0.000683843
-0.000722678
-0.000760089
-0.000793977
-0.0008255
-0.000854993
-0.000656979
-0.000684176
-0.000722996
-0.000760354
-0.000794179
-0.00082564
-0.000855075
-0.000656978
-0.000684175
-0.000722996
-0.000760353
-0.000794179
-0.000825639
-0.000855074
-0.000656689
-0.000683841
-0.000722676
-0.000760087
-0.000793975
-0.000825499
-0.000854992
-0.000656092
-0.00068316
-0.000722035
-0.00075956
-0.000793577
-0.000825228
-0.000854838
-0.000760448
-0.000765971
-0.000784803
-0.000807309
-0.000829733
-0.000852083
-0.000873998
-0.000760684
-0.000766317
-0.000785161
-0.000807611
-0.000829958
-0.000852228
-0.000874066
-0.000760801
-0.000766491
-0.000785343
-0.000807765
-0.000830075
-0.000852306
-0.000874104
-0.0007608
-0.00076649
-0.000785342
-0.000807765
-0.000830075
-0.000852305
-0.000874104
-0.000760682
-0.000766316
-0.00078516
-0.00080761
-0.000829957
-0.000852227
-0.000874065
-0.000760445
-0.000765968
-0.000784801
-0.000807307
-0.000829732
-0.000852082
-0.000873998
-0.00084902
-0.000839241
-0.000842949
-0.000853113
-0.000865315
-0.000879008
-0.000893451
-0.000849009
-0.000839347
-0.000843095
-0.000853242
-0.000865406
-0.000879054
-0.000893449
-0.000849006
-0.000839403
-0.000843173
-0.00085331
-0.000865455
-0.000879081
-0.000893453
-0.000849006
-0.000839403
-0.000843172
-0.00085331
-0.000865455
-0.000879081
-0.000893453
-0.000849008
-0.000839346
-0.000843094
-0.000853241
-0.000865405
-0.000879053
-0.000893449
-0.000849019
-0.00083924
-0.000842947
-0.000853112
-0.000865314
-0.000879007
-0.00089345
-0.000923851
-0.000902692
-0.000895248
-0.000895578
-0.000899054
-0.000904965
-0.00091244
-0.000923681
-0.000902637
-0.000895247
-0.000895583
-0.000899047
-0.000904938
-0.000912388
-0.0009236
-0.000902614
-0.00089525
-0.00089559
-0.000899048
-0.000904929
-0.000912366
-0.0009236
-0.000902614
-0.00089525
-0.000895589
-0.000899048
-0.000904929
-0.000912366
-0.000923681
-0.000902636
-0.000895246
-0.000895582
-0.000899046
-0.000904938
-0.000912388
-0.00092385
-0.000902691
-0.000895247
-0.000895577
-0.000899053
-0.000904965
-0.00091244
-0.000984786
-0.000956939
-0.000941245
-0.000933826
-0.000930031
-0.000929166
-0.00093036
-0.000984536
-0.000956789
-0.00094115
-0.000933751
-0.00092996
-0.00092909
-0.000930275
-0.000984414
-0.000956718
-0.000941106
-0.000933717
-0.000929928
-0.000929056
-0.000930234
-0.000984414
-0.000956718
-0.000941106
-0.000933717
-0.000929928
-0.000929056
-0.000930234
-0.000984536
-0.000956789
-0.00094115
-0.00093375
-0.00092996
-0.00092909
-0.000930275
-0.000984786
-0.000956939
-0.000941244
-0.000933825
-0.00093003
-0.000929166
-0.00093036
-0.00106577
-0.00110561
-0.0011489
-0.00119429
-0.00124021
-0.00127754
-0.001279
-0.00106522
-0.00110492
-0.00114808
-0.00119333
-0.00123915
-0.00127646
-0.00127799
-0.00106494
-0.00110458
-0.00114767
-0.00119286
-0.00123864
-0.00127593
-0.00127749
-0.00106494
-0.00110458
-0.00114767
-0.00119286
-0.00123863
-0.00127593
-0.00127749
-0.00106521
-0.00110492
-0.00114808
-0.00119333
-0.00123915
-0.00127646
-0.00127798
-0.00106577
-0.0011056
-0.0011489
-0.00119428
-0.0012402
-0.00127754
-0.00127899