/*--------------------------------*- C++ -*----------------------------------*\
  =========                 |
  \\      /  F ield         | OpenFOAM: The Open Source CFD Toolbox
   \\    /   O peration     | Website:  https://openfoam.org
    \\  /    A nd           | Version:  7
     \\/     M anipulation  |
\*---------------------------------------------------------------------------*/
FoamFile
{
    version     2.0;
    format      ascii;
    class       volVectorField;
    location    "3.75";
    object      U;
}
// * * * * * * * * * * * * * * * * * * * * * * * * * * * * * * * * * * * * * //

dimensions      [0 1 -1 0 0 0 0];

internalField   nonuniform List<vector> 
7784
(
(1.14492 -3.79074e-05 -4.92402e-05)
(1.14496 -3.12895e-05 -3.74766e-05)
(1.14501 -2.18948e-05 -1.93209e-05)
(1.14503 -1.4295e-05 -5.46266e-06)
(1.14504 -9.37073e-06 9.91038e-07)
(1.14504 -6.24405e-06 2.77049e-06)
(1.14504 -4.19141e-06 2.54495e-06)
(1.14493 -2.65747e-05 -3.8804e-05)
(1.14497 -2.16579e-05 -2.98617e-05)
(1.14501 -1.54916e-05 -1.54239e-05)
(1.14503 -1.09227e-05 -3.94909e-06)
(1.14504 -7.9027e-06 1.48257e-06)
(1.14504 -5.72806e-06 2.89967e-06)
(1.14504 -4.10871e-06 2.5363e-06)
(1.14494 -1.3763e-05 -3.23507e-05)
(1.14498 -1.22075e-05 -2.4924e-05)
(1.14502 -1.00155e-05 -1.26527e-05)
(1.14503 -8.04514e-06 -2.74189e-06)
(1.14504 -6.37701e-06 1.93067e-06)
(1.14504 -4.92224e-06 3.0404e-06)
(1.14504 -3.73035e-06 2.55006e-06)
(1.14494 -8.86822e-06 -2.95557e-05)
(1.14498 -8.35537e-06 -2.2686e-05)
(1.14502 -7.39237e-06 -1.12977e-05)
(1.14504 -6.29603e-06 -2.09794e-06)
(1.14504 -5.20099e-06 2.18905e-06)
(1.14504 -4.15369e-06 3.10724e-06)
(1.14504 -3.26585e-06 2.5576e-06)
(1.14495 -6.73627e-06 -2.85496e-05)
(1.14499 -6.40815e-06 -2.18536e-05)
(1.14502 -5.77376e-06 -1.07714e-05)
(1.14504 -5.01423e-06 -1.8409e-06)
(1.14504 -4.22864e-06 2.28869e-06)
(1.14504 -3.4565e-06 3.11417e-06)
(1.14504 -2.78164e-06 2.55106e-06)
(1.14495 -5.21586e-06 -2.82663e-05)
(1.14499 -4.95692e-06 -2.16118e-05)
(1.14502 -4.49051e-06 -1.06159e-05)
(1.14504 -3.93776e-06 -1.76803e-06)
(1.14504 -3.36275e-06 2.3118e-06)
(1.14504 -2.79241e-06 3.1021e-06)
(1.14504 -2.27979e-06 2.54129e-06)
(1.14495 -3.93896e-06 -2.82246e-05)
(1.14499 -3.73913e-06 -2.15705e-05)
(1.14502 -3.39135e-06 -1.05888e-05)
(1.14504 -2.98508e-06 -1.75865e-06)
(1.14504 -2.56524e-06 2.31061e-06)
(1.14504 -2.15034e-06 3.08933e-06)
(1.14504 -1.77131e-06 2.53351e-06)
(0.562941 -7.26463e-05 -0.000131771)
(0.562999 -6.18319e-05 -0.000105308)
(0.563061 -4.54506e-05 -6.36957e-05)
(0.563107 -3.08029e-05 -3.05972e-05)
(0.563137 -2.04839e-05 -1.28041e-05)
(0.563155 -1.36561e-05 -5.07613e-06)
(0.563169 -9.14158e-06 -2.29387e-06)
(0.562959 -6.02229e-05 -0.000111628)
(0.563016 -5.15964e-05 -9.1022e-05)
(0.563073 -3.9082e-05 -5.646e-05)
(0.563114 -2.79053e-05 -2.76293e-05)
(0.563141 -1.96387e-05 -1.16337e-05)
(0.563158 -1.37434e-05 -4.60477e-06)
(0.563171 -9.5832e-06 -2.13076e-06)
(0.562976 -4.30464e-05 -9.73405e-05)
(0.563031 -3.83689e-05 -8.01722e-05)
(0.563084 -3.09363e-05 -5.01823e-05)
(0.563122 -2.35666e-05 -2.45654e-05)
(0.563147 -1.74851e-05 -1.01957e-05)
(0.563162 -1.27765e-05 -3.92465e-06)
(0.563173 -9.23077e-06 -1.81862e-06)
(0.562987 -3.16351e-05 -8.98249e-05)
(0.563041 -2.89145e-05 -7.40836e-05)
(0.563093 -2.4261e-05 -4.62586e-05)
(0.563129 -1.92835e-05 -2.23914e-05)
(0.563152 -1.48672e-05 -9.04905e-06)
(0.563166 -1.12514e-05 -3.3336e-06)
(0.563176 -8.36824e-06 -1.50077e-06)
(0.562993 -2.37624e-05 -8.62226e-05)
(0.563047 -2.19362e-05 -7.1036e-05)
(0.563099 -1.88195e-05 -4.41424e-05)
(0.563134 -1.53917e-05 -2.11069e-05)
(0.563155 -1.22207e-05 -8.30589e-06)
(0.563169 -9.50768e-06 -2.91755e-06)
(0.563179 -7.24412e-06 -1.24856e-06)
(0.562998 -1.76623e-05 -8.4587e-05)
(0.563051 -1.63991e-05 -6.96019e-05)
(0.563102 -1.42871e-05 -4.30769e-05)
(0.563137 -1.19338e-05 -2.03994e-05)
(0.563158 -9.68795e-06 -7.8538e-06)
(0.563172 -7.69582e-06 -2.63773e-06)
(0.563181 -5.97697e-06 -1.06204e-06)
(0.563 -1.27675e-05 -8.38419e-05)
(0.563054 -1.19061e-05 -6.89194e-05)
(0.563105 -1.04835e-05 -4.2532e-05)
(0.563139 -8.88475e-06 -2.00038e-05)
(0.56316 -7.32565e-06 -7.57638e-06)
(0.563173 -5.90687e-06 -2.45013e-06)
(0.563182 -4.65355e-06 -9.28032e-07)
(0.223847 -6.70708e-05 -0.000184629)
(0.223882 -5.82695e-05 -0.000159925)
(0.223923 -4.44787e-05 -0.000115377)
(0.223962 -3.13789e-05 -7.37321e-05)
(0.223994 -2.15619e-05 -4.53203e-05)
(0.224019 -1.47279e-05 -2.82163e-05)
(0.224038 -1.00258e-05 -1.83165e-05)
(0.223859 -6.08654e-05 -0.000167797)
(0.223894 -5.32413e-05 -0.000147624)
(0.223932 -4.1624e-05 -0.000108311)
(0.223969 -3.05016e-05 -7.00737e-05)
(0.223999 -2.18126e-05 -4.33855e-05)
(0.224023 -1.54262e-05 -2.7164e-05)
(0.224041 -1.08207e-05 -1.77411e-05)
(0.223873 -4.93275e-05 -0.000152803)
(0.223907 -4.40208e-05 -0.000135725)
(0.223943 -3.56786e-05 -0.000100559)
(0.223977 -2.72831e-05 -6.5529e-05)
(0.224005 -2.02685e-05 -4.07808e-05)
(0.224027 -1.48068e-05 -2.56708e-05)
(0.224044 -1.06753e-05 -1.68781e-05)
(0.223883 -3.88047e-05 -0.000142883)
(0.223917 -3.51366e-05 -0.000127381)
(0.223952 -2.9273e-05 -9.46502e-05)
(0.223985 -2.31426e-05 -6.17635e-05)
(0.224011 -1.77505e-05 -3.8473e-05)
(0.224032 -1.33475e-05 -2.42614e-05)
(0.224047 -9.86236e-06 -1.60193e-05)
(0.22389 -3.00197e-05 -0.000136937)
(0.223924 -2.74238e-05 -0.000122222)
(0.223959 -2.33042e-05 -9.07928e-05)
(0.22399 -1.89059e-05 -5.91406e-05)
(0.224016 -1.48899e-05 -3.67568e-05)
(0.224035 -1.14752e-05 -2.31447e-05)
(0.22405 -8.6621e-06 -1.53007e-05)
(0.223895 -2.26533e-05 -0.000133547)
(0.223929 -2.08307e-05 -0.000119215)
(0.223964 -1.79713e-05 -8.8437e-05)
(0.223994 -1.4875e-05 -5.7438e-05)
(0.224019 -1.19629e-05 -3.55703e-05)
(0.224038 -9.40217e-06 -2.23269e-05)
(0.224053 -7.22278e-06 -1.47465e-05)
(0.223898 -1.64887e-05 -0.000131622)
(0.223932 -1.52404e-05 -0.000117469)
(0.223967 -1.32954e-05 -8.70121e-05)
(0.223997 -1.11669e-05 -5.63533e-05)
(0.224022 -9.12053e-06 -3.47738e-05)
(0.22404 -7.2748e-06 -2.17516e-05)
(0.224054 -5.6644e-06 -1.43395e-05)
(1.14503 -2.83986e-06 1.76933e-06)
(1.14503 -1.91722e-06 9.79281e-07)
(1.14504 -1.24825e-06 2.92077e-07)
(1.14504 -7.29572e-07 -3.24581e-07)
(1.14504 -2.94519e-07 -9.6852e-07)
(1.14504 1.15379e-07 -1.76847e-06)
(1.14504 -2.94703e-06 1.72856e-06)
(1.14504 -2.09472e-06 9.43666e-07)
(1.14504 -1.44011e-06 2.71291e-07)
(1.14504 -9.19112e-07 -3.306e-07)
(1.14504 -4.89128e-07 -9.63022e-07)
(1.14504 -1.12596e-07 -1.74478e-06)
(1.14504 -2.79495e-06 1.7091e-06)
(1.14504 -2.05875e-06 9.27681e-07)
(1.14504 -1.46577e-06 2.63874e-07)
(1.14504 -9.83258e-07 -3.2967e-07)
(1.14504 -5.8585e-07 -9.53324e-07)
(1.14504 -2.54191e-07 -1.72577e-06)
(1.14504 -2.52086e-06 1.70374e-06)
(1.14504 -1.90389e-06 9.26689e-07)
(1.14504 -1.39044e-06 2.6671e-07)
(1.14504 -9.65397e-07 -3.23687e-07)
(1.14504 -6.13142e-07 -9.43492e-07)
(1.14504 -3.20962e-07 -1.71083e-06)
(1.14504 -2.19086e-06 1.69916e-06)
(1.14504 -1.68561e-06 9.29034e-07)
(1.14504 -1.25463e-06 2.71841e-07)
(1.14504 -8.92349e-07 -3.16568e-07)
(1.14504 -5.88614e-07 -9.3371e-07)
(1.14504 -3.341e-07 -1.69711e-06)
(1.14504 -1.82086e-06 1.69558e-06)
(1.14504 -1.42048e-06 9.32567e-07)
(1.14504 -1.07243e-06 2.7721e-07)
(1.14504 -7.7579e-07 -3.09847e-07)
(1.14504 -5.23826e-07 -9.25007e-07)
(1.14504 -3.09286e-07 -1.68504e-06)
(1.14504 -1.42832e-06 1.69352e-06)
(1.14504 -1.12499e-06 9.36362e-07)
(1.14504 -8.58465e-07 2.82094e-07)
(1.14504 -6.28418e-07 -3.04118e-07)
(1.14504 -4.30482e-07 -9.17878e-07)
(1.14504 -2.59187e-07 -1.67553e-06)
(0.563178 -6.11486e-06 -1.569e-06)
(0.563184 -4.01555e-06 -1.57657e-06)
(0.563188 -2.46954e-06 -1.84731e-06)
(0.563191 -1.23775e-06 -2.29533e-06)
(0.563193 -1.49323e-07 -2.98731e-06)
(0.563194 9.6347e-07 -4.01858e-06)
(0.563179 -6.64057e-06 -1.52368e-06)
(0.563185 -4.50531e-06 -1.56578e-06)
(0.563189 -2.88256e-06 -1.84094e-06)
(0.563192 -1.57285e-06 -2.28326e-06)
(0.563194 -4.28578e-07 -2.96532e-06)
(0.563195 6.94472e-07 -3.99117e-06)
(0.563181 -6.5868e-06 -1.37353e-06)
(0.563186 -4.58144e-06 -1.48302e-06)
(0.56319 -3.01291e-06 -1.79008e-06)
(0.563193 -1.72721e-06 -2.24851e-06)
(0.563195 -6.03093e-07 -2.93956e-06)
(0.563196 4.63274e-07 -3.97503e-06)
(0.563183 -6.11763e-06 -1.19137e-06)
(0.563188 -4.34541e-06 -1.36954e-06)
(0.563192 -2.92147e-06 -1.71786e-06)
(0.563194 -1.73406e-06 -2.20263e-06)
(0.563196 -6.90773e-07 -2.91223e-06)
(0.563197 2.89433e-07 -3.96455e-06)
(0.563185 -5.40523e-06 -1.03075e-06)
(0.56319 -3.90863e-06 -1.2619e-06)
(0.563193 -2.67608e-06 -1.64649e-06)
(0.563195 -1.63009e-06 -2.15624e-06)
(0.563197 -7.03467e-07 -2.8839e-06)
(0.563197 1.65374e-07 -3.95282e-06)
(0.563187 -4.53416e-06 -9.02497e-07)
(0.563191 -3.32698e-06 -1.17089e-06)
(0.563194 -2.31136e-06 -1.58408e-06)
(0.563196 -1.43571e-06 -2.11461e-06)
(0.563197 -6.53226e-07 -2.8579e-06)
(0.563198 8.12878e-08 -3.94038e-06)
(0.563188 -3.57499e-06 -8.05201e-07)
(0.563192 -2.65332e-06 -1.09897e-06)
(0.563195 -1.86389e-06 -1.53348e-06)
(0.563197 -1.17452e-06 -2.08009e-06)
(0.563198 -5.53687e-07 -2.83578e-06)
(0.563199 3.01182e-08 -3.92889e-06)
(0.224052 -6.76101e-06 -1.24867e-05)
(0.224061 -4.41687e-06 -8.79467e-06)
(0.224067 -2.63371e-06 -6.25158e-06)
(0.22407 -1.16239e-06 -4.38451e-06)
(0.22407 1.92258e-07 -2.9236e-06)
(0.224068 1.61097e-06 -1.5664e-06)
(0.224054 -7.49448e-06 -1.21677e-05)
(0.224062 -5.02671e-06 -8.61239e-06)
(0.224068 -3.107e-06 -6.1479e-06)
(0.224071 -1.51072e-06 -4.32945e-06)
(0.224071 -5.75086e-08 -2.90073e-06)
(0.224068 1.42037e-06 -1.59608e-06)
(0.224056 -7.56468e-06 -1.16614e-05)
(0.224064 -5.17804e-06 -8.31278e-06)
(0.224069 -3.279e-06 -5.97423e-06)
(0.224072 -1.6819e-06 -4.24001e-06)
(0.224072 -2.33105e-07 -2.87863e-06)
(0.224069 1.20936e-06 -1.64879e-06)
(0.224059 -7.13354e-06 -1.11333e-05)
(0.224066 -4.97181e-06 -7.98847e-06)
(0.224071 -3.21148e-06 -5.78091e-06)
(0.224073 -1.71065e-06 -4.13851e-06)
(0.224073 -3.46568e-07 -2.85226e-06)
(0.224071 9.94266e-07 -1.70144e-06)
(0.224061 -6.37984e-06 -1.06702e-05)
(0.224068 -4.51797e-06 -7.69302e-06)
(0.224073 -2.96782e-06 -5.59883e-06)
(0.224075 -1.62739e-06 -4.03934e-06)
(0.224075 -4.04071e-07 -2.82197e-06)
(0.224072 7.88462e-07 -1.7413e-06)
(0.224063 -5.40075e-06 -1.02972e-05)
(0.22407 -3.87617e-06 -7.44652e-06)
(0.224074 -2.58176e-06 -5.44202e-06)
(0.224076 -1.44795e-06 -3.95082e-06)
(0.224076 -4.08545e-07 -2.79128e-06)
(0.224073 6.00259e-07 -1.76759e-06)
(0.224064 -4.28592e-06 -1.00133e-05)
(0.224071 -3.10891e-06 -7.25338e-06)
(0.224075 -2.09337e-06 -5.31588e-06)
(0.224077 -1.19416e-06 -3.87733e-06)
(0.224077 -3.66178e-07 -2.7628e-06)
(0.224074 4.35139e-07 -1.78314e-06)
(1.14504 5.45579e-07 -2.81364e-06)
(1.14505 1.05963e-06 -4.12009e-06)
(1.14505 1.7501e-06 -5.27234e-06)
(1.14506 2.89705e-06 -4.15876e-06)
(1.14505 5.73415e-06 5.02468e-06)
(1.14501 1.22365e-05 2.9331e-05)
(1.14498 1.96234e-05 6.63886e-05)
(1.14504 2.33386e-07 -2.78188e-06)
(1.14505 5.71859e-07 -4.0878e-06)
(1.14505 9.31831e-07 -5.28388e-06)
(1.14506 1.42406e-06 -4.41877e-06)
(1.14505 2.9896e-06 3.93302e-06)
(1.14502 7.54404e-06 2.62921e-05)
(1.14498 1.32922e-05 6.10085e-05)
(1.14504 2.30206e-08 -2.75707e-06)
(1.14505 2.52836e-07 -4.0633e-06)
(1.14505 4.51897e-07 -5.29287e-06)
(1.14506 6.49567e-07 -4.61378e-06)
(1.14505 1.27349e-06 3.10861e-06)
(1.14502 3.09242e-06 2.42546e-05)
(1.14498 5.52523e-06 5.7704e-05)
(1.14504 -8.32298e-08 -2.73691e-06)
(1.14505 1.08047e-07 -4.04382e-06)
(1.14505 2.69608e-07 -5.27802e-06)
(1.14506 4.2367e-07 -4.67213e-06)
(1.14505 7.99654e-07 2.74115e-06)
(1.14502 1.71867e-06 2.33398e-05)
(1.14498 2.92841e-06 5.62502e-05)
(1.14504 -1.2262e-07 -2.71664e-06)
(1.14505 5.52345e-08 -4.01861e-06)
(1.14505 2.1574e-07 -5.24719e-06)
(1.14506 3.87087e-07 -4.66293e-06)
(1.14505 6.97471e-07 2.63262e-06)
(1.14502 1.30012e-06 2.30253e-05)
(1.14498 2.03635e-06 5.57395e-05)
(1.14504 -1.25098e-07 -2.69909e-06)
(1.14505 3.76382e-08 -3.99431e-06)
(1.14505 1.93637e-07 -5.21595e-06)
(1.14506 3.68267e-07 -4.63382e-06)
(1.14505 6.32362e-07 2.62378e-06)
(1.14502 1.05615e-06 2.29512e-05)
(1.14498 1.53345e-06 5.56078e-05)
(1.14504 -1.08355e-07 -2.68547e-06)
(1.14505 3.081e-08 -3.97481e-06)
(1.14505 1.69147e-07 -5.19128e-06)
(1.14506 3.26486e-07 -4.60618e-06)
(1.14505 5.42067e-07 2.64166e-06)
(1.14502 8.45561e-07 2.29528e-05)
(1.14499 1.16311e-06 5.55986e-05)
(0.563195 2.24338e-06 -5.34577e-06)
(0.563193 3.93392e-06 -6.38744e-06)
(0.563189 6.3966e-06 -4.77843e-06)
(0.563178 1.04173e-05 5.79726e-06)
(0.563149 1.79418e-05 3.77513e-05)
(0.563097 3.01731e-05 0.000101147)
(0.563067 4.10232e-05 0.000179082)
(0.563195 1.90711e-06 -5.33292e-06)
(0.563193 3.39501e-06 -6.43876e-06)
(0.563189 5.41672e-06 -5.05579e-06)
(0.563179 8.48377e-06 4.77187e-06)
(0.563152 1.41102e-05 3.45956e-05)
(0.563102 2.37522e-05 9.35004e-05)
(0.56307 3.27935e-05 0.000166552)
(0.563196 1.57032e-06 -5.34388e-06)
(0.563194 2.84425e-06 -6.52728e-06)
(0.56319 4.49368e-06 -5.39165e-06)
(0.56318 6.80344e-06 3.73221e-06)
(0.563155 1.04577e-05 3.18341e-05)
(0.563105 1.60974e-05 8.77611e-05)
(0.563073 2.13509e-05 0.00015799)
(0.563197 1.28344e-06 -5.35844e-06)
(0.563195 2.38029e-06 -6.5939e-06)
(0.563191 3.74043e-06 -5.62959e-06)
(0.563182 5.53026e-06 3.07473e-06)
(0.563157 8.06712e-06 3.02214e-05)
(0.563108 1.15746e-05 8.46593e-05)
(0.563075 1.47326e-05 0.000153585)
(0.563197 1.03674e-06 -5.36579e-06)
(0.563196 1.97655e-06 -6.63474e-06)
(0.563193 3.0863e-06 -5.763e-06)
(0.563183 4.47708e-06 2.72895e-06)
(0.563159 6.3105e-06 2.94214e-05)
(0.56311 8.636e-06 8.31918e-05)
(0.563077 1.06592e-05 0.00015156)
(0.563198 8.13466e-07 -5.36853e-06)
(0.563197 1.59155e-06 -6.65873e-06)
(0.563194 2.47548e-06 -5.83324e-06)
(0.563184 3.53833e-06 2.5592e-06)
(0.56316 4.85646e-06 2.90518e-05)
(0.563112 6.4152e-06 8.25472e-05)
(0.563079 7.72917e-06 0.000150699)
(0.563199 6.09655e-07 -5.36811e-06)
(0.563198 1.21992e-06 -6.67343e-06)
(0.563194 1.89427e-06 -5.87148e-06)
(0.563185 2.67955e-06 2.47498e-06)
(0.563161 3.60912e-06 2.88814e-05)
(0.563113 4.65051e-06 8.22681e-05)
(0.56308 5.50319e-06 0.000150343)
(0.224062 3.2887e-06 2.09319e-07)
(0.224051 5.50761e-06 3.85265e-06)
(0.224035 8.67132e-06 1.30022e-05)
(0.224011 1.34774e-05 3.49033e-05)
(0.223975 2.10853e-05 7.99283e-05)
(0.223936 3.11134e-05 0.000151864)
(0.223924 3.83364e-05 0.000225579)
(0.224062 3.09157e-06 1.005e-07)
(0.224052 5.19399e-06 3.5815e-06)
(0.224036 8.03603e-06 1.23669e-05)
(0.224013 1.21253e-05 3.34068e-05)
(0.223979 1.84195e-05 7.6331e-05)
(0.22394 2.69322e-05 0.000144193)
(0.223925 3.33869e-05 0.000213777)
(0.224064 2.79073e-06 -6.3543e-08)
(0.224054 4.69961e-06 3.20746e-06)
(0.224038 7.14456e-06 1.15411e-05)
(0.224015 1.04686e-05 3.16146e-05)
(0.223982 1.5132e-05 7.26201e-05)
(0.223943 2.10422e-05 0.000137427)
(0.223928 2.56822e-05 0.000204257)
(0.224065 2.42933e-06 -2.22827e-07)
(0.224055 4.10218e-06 2.87107e-06)
(0.22404 6.14887e-06 1.08354e-05)
(0.224018 8.79592e-06 3.01983e-05)
(0.223985 1.22437e-05 6.99527e-05)
(0.223947 1.63352e-05 0.00013298)
(0.223931 1.9541e-05 0.00019834)
(0.224066 2.03978e-06 -3.50966e-07)
(0.224057 3.45218e-06 2.60936e-06)
(0.224042 5.12459e-06 1.03274e-05)
(0.22402 7.18475e-06 2.92529e-05)
(0.223988 9.71726e-06 6.82894e-05)
(0.223949 1.2565e-05 0.000130362)
(0.223933 1.47648e-05 0.000194967)
(0.224068 1.6427e-06 -4.45626e-07)
(0.224058 2.78853e-06 2.41996e-06)
(0.224044 4.10814e-06 9.98523e-06)
(0.224022 5.66667e-06 2.86598e-05)
(0.22399 7.49074e-06 6.73138e-05)
(0.223951 9.4501e-06 0.000128909)
(0.223935 1.09383e-05 0.000193148)
(0.224069 1.25425e-06 -5.11498e-07)
(0.224059 2.13621e-06 2.28786e-06)
(0.224045 3.12936e-06 9.75975e-06)
(0.224023 4.26456e-06 2.82924e-05)
(0.223991 5.54311e-06 6.67454e-05)
(0.223953 6.86715e-06 0.000128106)
(0.223937 7.85577e-06 0.000192174)
(1.14495 -2.77108e-06 -2.82427e-05)
(1.14499 -2.62676e-06 -2.15799e-05)
(1.14502 -2.38088e-06 -1.05941e-05)
(1.14504 -2.09782e-06 -1.76401e-06)
(1.14504 -1.80836e-06 2.3055e-06)
(1.14504 -1.5243e-06 3.08065e-06)
(1.14504 -1.26272e-06 2.52835e-06)
(1.14495 -1.64748e-06 -2.82644e-05)
(1.14499 -1.55979e-06 -2.15939e-05)
(1.14502 -1.41275e-06 -1.06023e-05)
(1.14504 -1.24529e-06 -1.76952e-06)
(1.14504 -1.0753e-06 2.30184e-06)
(1.14504 -9.0916e-07 3.07556e-06)
(1.14504 -7.5582e-07 2.5255e-06)
(1.14495 -5.45565e-07 -2.82763e-05)
(1.14499 -5.15954e-07 -2.16018e-05)
(1.14502 -4.66977e-07 -1.06069e-05)
(1.14504 -4.11591e-07 -1.77231e-06)
(1.14504 -3.55589e-07 2.3002e-06)
(1.14504 -3.00968e-07 3.07332e-06)
(1.14504 -2.50531e-07 2.52427e-06)
(1.14495 5.49047e-07 -2.82763e-05)
(1.14499 5.2021e-07 -2.16018e-05)
(1.14502 4.71496e-07 -1.06069e-05)
(1.14504 4.16015e-07 -1.77233e-06)
(1.14504 3.59779e-07 2.30019e-06)
(1.14504 3.04865e-07 3.07331e-06)
(1.14504 2.54123e-07 2.52426e-06)
(1.14495 1.65103e-06 -2.82644e-05)
(1.14499 1.56415e-06 -2.1594e-05)
(1.14502 1.41739e-06 -1.06024e-05)
(1.14504 1.24983e-06 -1.76957e-06)
(1.14504 1.07958e-06 2.3018e-06)
(1.14504 9.13122e-07 3.07553e-06)
(1.14504 7.59455e-07 2.52547e-06)
(1.14495 2.77476e-06 -2.82427e-05)
(1.14499 2.63134e-06 -2.15799e-05)
(1.14502 2.38578e-06 -1.05941e-05)
(1.14504 2.10259e-06 -1.7641e-06)
(1.14504 1.81283e-06 2.30542e-06)
(1.14504 1.5284e-06 3.08059e-06)
(1.14504 1.26644e-06 2.52831e-06)
(0.563002 -8.66177e-06 -8.34835e-05)
(0.563056 -8.10031e-06 -6.85757e-05)
(0.563106 -7.181e-06 -4.22393e-05)
(0.563141 -6.14346e-06 -1.97755e-05)
(0.563162 -5.11807e-06 -7.40474e-06)
(0.563174 -4.16931e-06 -2.32649e-06)
(0.563183 -3.31758e-06 -8.35732e-07)
(0.563003 -5.0276e-06 -8.3306e-05)
(0.563057 -4.70935e-06 -6.83993e-05)
(0.563107 -4.19175e-06 -4.20822e-05)
(0.563142 -3.60658e-06 -1.9647e-05)
(0.563162 -3.02381e-06 -7.30374e-06)
(0.563175 -2.47913e-06 -2.25099e-06)
(0.563184 -1.9849e-06 -7.77746e-07)
(0.563003 -1.6465e-06 -8.32309e-05)
(0.563057 -1.543e-06 -6.83229e-05)
(0.563108 -1.37571e-06 -4.20124e-05)
(0.563142 -1.18661e-06 -1.95884e-05)
(0.563163 -9.97662e-07 -7.2566e-06)
(0.563176 -8.20241e-07 -2.21506e-06)
(0.563184 -6.58434e-07 -7.49769e-07)
(0.563003 1.65424e-06 -8.32309e-05)
(0.563057 1.55185e-06 -6.8323e-05)
(0.563108 1.38477e-06 -4.20125e-05)
(0.563142 1.19534e-06 -1.95885e-05)
(0.563163 1.00584e-06 -7.25667e-06)
(0.563176 8.27794e-07 -2.21512e-06)
(0.563184 6.65347e-07 -7.49815e-07)
(0.563003 5.03551e-06 -8.33062e-05)
(0.563057 4.71842e-06 -6.83995e-05)
(0.563107 4.20104e-06 -4.20824e-05)
(0.563142 3.61552e-06 -1.96472e-05)
(0.563162 3.03215e-06 -7.30393e-06)
(0.563175 2.48679e-06 -2.25115e-06)
(0.563184 1.99189e-06 -7.77886e-07)
(0.563002 8.67002e-06 -8.34837e-05)
(0.563056 8.10984e-06 -6.8576e-05)
(0.563106 7.19079e-06 -4.22397e-05)
(0.563141 6.15283e-06 -1.97759e-05)
(0.563162 5.12675e-06 -7.40507e-06)
(0.563174 4.17721e-06 -2.32677e-06)
(0.563183 3.32469e-06 -8.35973e-07)
(0.2239 -1.12105e-05 -0.000130516)
(0.223934 -1.03998e-05 -0.000116449)
(0.223969 -9.14195e-06 -8.61534e-05)
(0.223999 -7.7557e-06 -5.56742e-05)
(0.224023 -6.40275e-06 -3.42556e-05)
(0.224042 -5.16058e-06 -2.13643e-05)
(0.224056 -4.05726e-06 -1.40564e-05)
(0.223901 -6.50944e-06 -0.000129904)
(0.223935 -6.05243e-06 -0.000115878)
(0.22397 -5.34568e-06 -8.56624e-05)
(0.224 -4.5635e-06 -5.52759e-05)
(0.224024 -3.79291e-06 -3.39439e-05)
(0.224043 -3.07736e-06 -2.11256e-05)
(0.224057 -2.4344e-06 -1.38781e-05)
(0.223901 -2.13194e-06 -0.00012963)
(0.223936 -1.98399e-06 -0.00011562)
(0.22397 -1.75598e-06 -8.54383e-05)
(0.224001 -1.50327e-06 -5.50914e-05)
(0.224025 -1.25323e-06 -3.37973e-05)
(0.224043 -1.0198e-06 -2.10118e-05)
(0.224057 -8.08871e-07 -1.37921e-05)
(0.223901 2.14119e-06 -0.00012963)
(0.223936 1.99421e-06 -0.00011562)
(0.22397 1.76625e-06 -8.54385e-05)
(0.224001 1.51307e-06 -5.50916e-05)
(0.224025 1.26235e-06 -3.37974e-05)
(0.224043 1.02817e-06 -2.10119e-05)
(0.224057 8.16499e-07 -1.37923e-05)
(0.223901 6.51889e-06 -0.000129905)
(0.223935 6.06289e-06 -0.000115878)
(0.22397 5.35619e-06 -8.56629e-05)
(0.224 4.5735e-06 -5.52764e-05)
(0.224024 3.80218e-06 -3.39443e-05)
(0.224043 3.08584e-06 -2.11259e-05)
(0.224057 2.44208e-06 -1.38785e-05)
(0.2239 1.12204e-05 -0.000130517)
(0.223934 1.04107e-05 -0.00011645)
(0.223969 9.15297e-06 -8.61542e-05)
(0.223999 7.76614e-06 -5.5675e-05)
(0.224023 6.41235e-06 -3.42564e-05)
(0.224042 5.16927e-06 -2.13649e-05)
(0.224056 4.06506e-06 -1.4057e-05)
(1.14504 -1.02464e-06 1.69245e-06)
(1.14504 -8.11851e-07 9.38702e-07)
(1.14504 -6.24353e-07 2.85754e-07)
(1.14504 -4.60721e-07 -2.99752e-07)
(1.14504 -3.18352e-07 -9.12559e-07)
(1.14504 -1.93449e-07 -1.66865e-06)
(1.14504 -6.15641e-07 1.69194e-06)
(1.14504 -4.89524e-07 9.39778e-07)
(1.14504 -3.78252e-07 2.88088e-07)
(1.14504 -2.80428e-07 -2.9685e-07)
(1.14504 -1.94649e-07 -9.09058e-07)
(1.14504 -1.18685e-07 -1.66423e-06)
(1.14504 -2.04329e-07 1.69175e-06)
(1.14504 -1.62657e-07 9.4027e-07)
(1.14504 -1.25823e-07 2.89231e-07)
(1.14504 -9.33348e-08 -2.95411e-07)
(1.14504 -6.47343e-08 -9.07331e-07)
(1.14504 -3.92805e-08 -1.66208e-06)
(1.14504 2.07623e-07 1.69174e-06)
(1.14504 1.65674e-07 9.40262e-07)
(1.14504 1.28596e-07 2.89223e-07)
(1.14504 9.5899e-08 -2.95418e-07)
(1.14504 6.71286e-08 -9.07337e-07)
(1.14504 4.15436e-08 -1.66209e-06)
(1.14504 6.1896e-07 1.69192e-06)
(1.14504 4.92553e-07 9.39755e-07)
(1.14504 3.81027e-07 2.88065e-07)
(1.14504 2.82988e-07 -2.96871e-07)
(1.14504 1.97037e-07 -9.09076e-07)
(1.14504 1.20942e-07 -1.66425e-06)
(1.14504 1.02801e-06 1.69241e-06)
(1.14504 8.14902e-07 9.38662e-07)
(1.14504 6.27128e-07 2.85716e-07)
(1.14504 4.6327e-07 -2.99786e-07)
(1.14504 3.20725e-07 -9.12589e-07)
(1.14504 1.95691e-07 -1.66868e-06)
(0.563189 -2.57167e-06 -7.358e-07)
(0.563193 -1.9248e-06 -1.04683e-06)
(0.563195 -1.36269e-06 -1.4958e-06)
(0.563197 -8.67285e-07 -2.0539e-06)
(0.563199 -4.18426e-07 -2.81876e-06)
(0.563199 4.48876e-09 -3.91973e-06)
(0.563189 -1.54744e-06 -6.9135e-07)
(0.563193 -1.1644e-06 -1.01324e-06)
(0.563196 -8.28354e-07 -1.471e-06)
(0.563198 -5.30351e-07 -2.03641e-06)
(0.563199 -2.59226e-07 -2.80726e-06)
(0.5632 -3.39209e-09 -3.91346e-06)
(0.56319 -5.14481e-07 -6.69682e-07)
(0.563193 -3.8782e-07 -9.96768e-07)
(0.563196 -2.76214e-07 -1.45872e-06)
(0.563198 -1.76911e-07 -2.02769e-06)
(0.563199 -8.63566e-08 -2.8015e-06)
(0.5632 -8.21423e-10 -3.9103e-06)
(0.56319 5.20786e-07 -6.69722e-07)
(0.563193 3.93577e-07 -9.96806e-07)
(0.563196 2.81497e-07 -1.45876e-06)
(0.563198 1.81805e-07 -2.02772e-06)
(0.563199 9.09476e-08 -2.80153e-06)
(0.5632 5.19452e-09 -3.91033e-06)
(0.563189 1.55378e-06 -6.91473e-07)
(0.563193 1.17016e-06 -1.01336e-06)
(0.563196 8.3363e-07 -1.4711e-06)
(0.563198 5.3523e-07 -2.0365e-06)
(0.563199 2.638e-07 -2.80735e-06)
(0.5632 7.75269e-09 -3.91353e-06)
(0.563189 2.57807e-06 -7.36011e-07)
(0.563193 1.93058e-06 -1.04702e-06)
(0.563195 1.36795e-06 -1.49597e-06)
(0.563197 8.72129e-07 -2.05406e-06)
(0.563199 4.22968e-07 -2.81891e-06)
(0.563199 -1.53794e-10 -3.91987e-06)
(0.224066 -3.09646e-06 -9.81042e-06)
(0.224072 -2.26378e-06 -7.11189e-06)
(0.224076 -1.53644e-06 -5.22179e-06)
(0.224078 -8.87108e-07 -3.82134e-06)
(0.224077 -2.8707e-07 -2.73977e-06)
(0.224075 2.92679e-07 -1.79184e-06)
(0.224066 -1.86823e-06 -9.68024e-06)
(0.224073 -1.37272e-06 -7.01947e-06)
(0.224077 -9.3633e-07 -5.1596e-06)
(0.224078 -5.44589e-07 -3.78376e-06)
(0.224078 -1.81656e-07 -2.72365e-06)
(0.224075 1.68657e-07 -1.79628e-06)
(0.224067 -6.22129e-07 -9.61675e-06)
(0.224073 -4.57899e-07 -6.97397e-06)
(0.224077 -3.1267e-07 -5.12875e-06)
(0.224078 -1.81926e-07 -3.76496e-06)
(0.224078 -6.06198e-08 -2.71542e-06)
(0.224075 5.64427e-08 -1.79814e-06)
(0.224067 6.29057e-07 -9.61684e-06)
(0.224073 4.64202e-07 -6.97406e-06)
(0.224077 3.18436e-07 -5.12883e-06)
(0.224078 1.87251e-07 -3.76503e-06)
(0.224078 6.55973e-08 -2.71548e-06)
(0.224075 -5.17099e-08 -1.7982e-06)
(0.224066 1.87518e-06 -9.68052e-06)
(0.224073 1.37903e-06 -7.01973e-06)
(0.224077 9.42083e-07 -5.15983e-06)
(0.224078 5.49893e-07 -3.78397e-06)
(0.224078 1.86613e-07 -2.72384e-06)
(0.224075 -1.63935e-07 -1.79647e-06)
(0.224066 3.10346e-06 -9.8109e-06)
(0.224072 2.27008e-06 -7.11231e-06)
(0.224076 1.54216e-06 -5.22218e-06)
(0.224078 8.92376e-07 -3.82169e-06)
(0.224077 2.92013e-07 -2.74009e-06)
(0.224075 -2.87971e-07 -1.79217e-06)
(1.14504 -8.13626e-08 -2.6759e-06)
(1.14505 2.47688e-08 -3.96102e-06)
(1.14505 1.32786e-07 -5.17434e-06)
(1.14506 2.5596e-07 -4.58616e-06)
(1.14505 4.15724e-07 2.66028e-06)
(1.14502 6.23436e-07 2.29695e-05)
(1.14499 8.29563e-07 5.56172e-05)
(1.14504 -4.96753e-08 -2.67005e-06)
(1.14505 1.65335e-08 -3.953e-06)
(1.14505 8.49476e-08 -5.16438e-06)
(1.14506 1.62747e-07 -4.57403e-06)
(1.14506 2.60562e-07 2.67281e-06)
(1.14502 3.82176e-07 2.29833e-05)
(1.14499 4.9908e-07 5.56348e-05)
(1.14504 -1.60095e-08 -2.66729e-06)
(1.14505 6.45838e-09 -3.94939e-06)
(1.14505 2.98197e-08 -5.15984e-06)
(1.14506 5.6334e-08 -4.56845e-06)
(1.14506 8.92101e-08 2.67879e-06)
(1.14502 1.29273e-07 2.29903e-05)
(1.14499 1.67169e-07 5.56441e-05)
(1.14504 1.81735e-08 -2.66729e-06)
(1.14505 -4.36463e-09 -3.94939e-06)
(1.14505 -2.777e-08 -5.15985e-06)
(1.14506 -5.43012e-08 -4.56846e-06)
(1.14506 -8.71608e-08 2.67878e-06)
(1.14502 -1.27192e-07 2.29902e-05)
(1.14499 -1.65237e-07 5.56441e-05)
(1.14504 5.18356e-08 -2.67006e-06)
(1.14505 -1.44376e-08 -3.95301e-06)
(1.14505 -8.28868e-08 -5.16439e-06)
(1.14506 -1.60693e-07 -4.57405e-06)
(1.14506 -2.58481e-07 2.67278e-06)
(1.14502 -3.80059e-07 2.29832e-05)
(1.14499 -4.97122e-07 5.56347e-05)
(1.14504 8.35164e-08 -2.67593e-06)
(1.14505 -2.26672e-08 -3.96104e-06)
(1.14505 -1.30702e-07 -5.17437e-06)
(1.14506 -2.53859e-07 -4.58619e-06)
(1.14505 -4.13571e-07 2.66023e-06)
(1.14502 -6.21236e-07 2.29694e-05)
(1.14499 -8.27543e-07 5.56172e-05)
(0.563199 4.22926e-07 -5.36677e-06)
(0.563198 8.60203e-07 -6.68267e-06)
(0.563195 1.336e-06 -5.89348e-06)
(0.563186 1.87712e-06 2.43081e-06)
(0.563162 2.497e-06 2.87988e-05)
(0.563113 3.16599e-06 8.21425e-05)
(0.56308 3.70179e-06 0.000150192)
(0.5632 2.49103e-07 -5.36538e-06)
(0.563199 5.11279e-07 -6.68729e-06)
(0.563195 7.94856e-07 -5.90577e-06)
(0.563186 1.11215e-06 2.40722e-06)
(0.563163 1.46799e-06 2.87576e-05)
(0.563114 1.84323e-06 8.20842e-05)
(0.563081 2.13957e-06 0.000150126)
(0.5632 8.35245e-08 -5.36462e-06)
(0.563199 1.70838e-07 -6.68929e-06)
(0.563195 2.6503e-07 -5.91146e-06)
(0.563187 3.69589e-07 2.39664e-06)
(0.563163 4.85664e-07 2.874e-05)
(0.563114 6.06725e-07 8.20604e-05)
(0.563081 7.01579e-07 0.000150101)
(0.5632 -7.92974e-08 -5.36465e-06)
(0.563199 -1.6669e-07 -6.68932e-06)
(0.563195 -2.60899e-07 -5.91149e-06)
(0.563187 -3.65411e-07 2.3966e-06)
(0.563163 -4.81375e-07 2.87399e-05)
(0.563114 -6.02324e-07 8.20604e-05)
(0.563081 -6.97457e-07 0.000150101)
(0.5632 -2.44875e-07 -5.36546e-06)
(0.563199 -5.0711e-07 -6.68738e-06)
(0.563195 -7.9068e-07 -5.90587e-06)
(0.563186 -1.10791e-06 2.40709e-06)
(0.563163 -1.4636e-06 2.87574e-05)
(0.563114 -1.83873e-06 8.2084e-05)
(0.563081 -2.13537e-06 0.000150126)
(0.563199 -4.18698e-07 -5.3669e-06)
(0.563198 -8.55992e-07 -6.68282e-06)
(0.563195 -1.33173e-06 -5.89367e-06)
(0.563186 -1.87272e-06 2.43058e-06)
(0.563162 -2.49241e-06 2.87985e-05)
(0.563113 -3.16127e-06 8.21422e-05)
(0.56308 -3.69743e-06 0.000150191)
(0.224069 8.81095e-07 -5.55293e-07)
(0.22406 1.50594e-06 2.19955e-06)
(0.224046 2.19644e-06 9.61461e-06)
(0.224024 2.96748e-06 2.80666e-05)
(0.223992 3.81264e-06 6.64126e-05)
(0.223954 4.66512e-06 0.000127657)
(0.223937 5.29301e-06 0.000191644)
(0.22407 5.22735e-07 -5.81703e-07)
(0.224061 8.95816e-07 2.14647e-06)
(0.224046 1.30204e-06 9.528e-06)
(0.224025 1.74905e-06 2.79354e-05)
(0.223993 2.23071e-06 6.62259e-05)
(0.223955 2.70848e-06 0.000127413)
(0.223938 3.05718e-06 0.000191363)
(0.22407 1.74542e-07 -5.94174e-07)
(0.224061 2.98541e-07 2.12148e-06)
(0.224046 4.3259e-07 9.48737e-06)
(0.224025 5.79068e-07 2.78749e-05)
(0.223993 7.35594e-07 6.61415e-05)
(0.223955 8.89591e-07 0.000127305)
(0.223938 1.00137e-06 0.00019124)
(0.22407 -1.69971e-07 -5.9424e-07)
(0.224061 -2.94051e-07 2.1214e-06)
(0.224046 -4.28108e-07 9.48728e-06)
(0.224025 -5.74516e-07 2.78748e-05)
(0.223993 -7.30887e-07 6.61414e-05)
(0.223955 -8.84735e-07 0.000127304)
(0.223938 -9.96818e-07 0.00019124)
(0.22407 -5.18158e-07 -5.81906e-07)
(0.224061 -8.91299e-07 2.14624e-06)
(0.224046 -1.2975e-06 9.52773e-06)
(0.224025 -1.74442e-06 2.79351e-05)
(0.223993 -2.2259e-06 6.62256e-05)
(0.223955 -2.70352e-06 0.000127412)
(0.223938 -3.05257e-06 0.000191362)
(0.224069 -8.76508e-07 -5.55645e-07)
(0.22406 -1.50137e-06 2.19914e-06)
(0.224046 -2.19178e-06 9.61413e-06)
(0.224024 -2.96267e-06 2.8066e-05)
(0.223992 -3.8076e-06 6.64119e-05)
(0.223954 -4.65994e-06 0.000127656)
(0.223937 -5.28824e-06 0.000191643)
(1.14495 3.94284e-06 -2.82246e-05)
(1.14499 3.74405e-06 -2.15706e-05)
(1.14502 3.39668e-06 -1.05889e-05)
(1.14504 2.99026e-06 -1.75878e-06)
(1.14504 2.57003e-06 2.31049e-06)
(1.14504 2.15465e-06 3.08924e-06)
(1.14504 1.77515e-06 2.53344e-06)
(1.14495 5.21995e-06 -2.82664e-05)
(1.14499 4.96231e-06 -2.16119e-05)
(1.14502 4.49649e-06 -1.06161e-05)
(1.14504 3.94355e-06 -1.7682e-06)
(1.14504 3.36799e-06 2.31164e-06)
(1.14504 2.797e-06 3.10199e-06)
(1.14504 2.2838e-06 2.5412e-06)
(1.14495 6.7405e-06 -2.85496e-05)
(1.14499 6.41407e-06 -2.18536e-05)
(1.14502 5.78063e-06 -1.07715e-05)
(1.14504 5.02088e-06 -1.8411e-06)
(1.14504 4.23451e-06 2.28848e-06)
(1.14504 3.46145e-06 3.11403e-06)
(1.14504 2.78583e-06 2.55094e-06)
(1.14494 8.87233e-06 -2.95554e-05)
(1.14498 8.36159e-06 -2.26857e-05)
(1.14502 7.40015e-06 -1.12976e-05)
(1.14504 6.30373e-06 -2.09812e-06)
(1.14504 5.2076e-06 2.18879e-06)
(1.14504 4.15908e-06 3.10708e-06)
(1.14504 3.27019e-06 2.55744e-06)
(1.14494 1.37664e-05 -3.235e-05)
(1.14498 1.22133e-05 -2.49231e-05)
(1.14502 1.00236e-05 -1.26521e-05)
(1.14503 8.05349e-06 -2.74194e-06)
(1.14504 6.38418e-06 1.93037e-06)
(1.14504 4.92789e-06 3.04013e-06)
(1.14504 3.73469e-06 2.54987e-06)
(1.14493 2.65773e-05 -3.88026e-05)
(1.14497 2.16624e-05 -2.986e-05)
(1.14501 1.54985e-05 -1.54227e-05)
(1.14503 1.09304e-05 -3.94877e-06)
(1.14504 7.90939e-06 1.48233e-06)
(1.14504 5.73327e-06 2.89936e-06)
(1.14504 4.1126e-06 2.5361e-06)
(1.14492 3.79091e-05 -4.92388e-05)
(1.14496 3.12923e-05 -3.74744e-05)
(1.14501 2.18994e-05 -1.93192e-05)