/*--------------------------------*- C++ -*----------------------------------*\
  =========                 |
  \\      /  F ield         | OpenFOAM: The Open Source CFD Toolbox
   \\    /   O peration     | Website:  https://openfoam.org
    \\  /    A nd           | Version:  7
     \\/     M anipulation  |
\*---------------------------------------------------------------------------*/
FoamFile
{
    version     2.0;
    format      ascii;
    class       volScalarField;
    location    "2.5";
    object      p;
}
// * * * * * * * * * * * * * * * * * * * * * * * * * * * * * * * * * * * * * //

dimensions      [0 2 -2 0 0 0 0];

internalField   nonuniform List<scalar> 
7784
(
2.08604e-10
-0.000277601
-0.000780386
-0.00127641
-0.00162112
-0.00186348
-0.0020581
8.46107e-05
-0.000257494
-0.000809862
-0.0012941
-0.00162337
-0.00186139
-0.00205586
1.01385e-05
-0.000327881
-0.000856335
-0.00131529
-0.00163096
-0.00186385
-0.00205619
-3.4575e-05
-0.000366662
-0.000883376
-0.00133055
-0.00163868
-0.00186743
-0.00205747
-5.84255e-05
-0.00038827
-0.000900202
-0.00134159
-0.00164506
-0.00187068
-0.0020588
-7.32765e-05
-0.000402314
-0.000911628
-0.00134956
-0.00165
-0.00187339
-0.00206003
-8.23936e-05
-0.0004111
-0.00091903
-0.001355
-0.00165359
-0.0018755
-0.00206116
-0.000542922
-0.000804716
-0.001186
-0.00151522
-0.00175219
-0.00194015
-0.00210515
-0.000536328
-0.000811993
-0.00119885
-0.00151834
-0.00174802
-0.00193527
-0.00210121
-0.000577891
-0.000848918
-0.00122043
-0.00152607
-0.00174937
-0.00193473
-0.00209995
-0.000601329
-0.000868954
-0.00123375
-0.00153298
-0.00175254
-0.00193598
-0.00210007
-0.000613287
-0.000880227
-0.00124258
-0.00153861
-0.00175567
-0.00193755
-0.00210064
-0.000621045
-0.000888075
-0.00124912
-0.00154313
-0.00175845
-0.00193914
-0.00210139
-0.000625961
-0.000893225
-0.00125362
-0.00154645
-0.00176067
-0.00194051
-0.00210204
-0.00108484
-0.00123278
-0.00146084
-0.00167441
-0.00185059
-0.00200572
-0.00214846
-0.00107835
-0.00122745
-0.00145665
-0.00166819
-0.00184316
-0.00199936
-0.00214353
-0.00108796
-0.00123713
-0.00146205
-0.00166871
-0.00184137
-0.00199707
-0.00214123
-0.00109522
-0.0012444
-0.00146719
-0.00167108
-0.00184196
-0.00199673
-0.00214039
-0.00109946
-0.00124919
-0.00147118
-0.0016735
-0.00184308
-0.00199699
-0.0021401
-0.0011025
-0.00125291
-0.00147451
-0.00167577
-0.00184436
-0.00199755
-0.00214013
-0.00110452
-0.00125554
-0.00147699
-0.0016776
-0.00184553
-0.00199817
-0.0021403
-0.00222479
-0.00237322
-0.00251181
-0.0026475
-0.0027863
-0.00293448
-0.00222268
-0.00237131
-0.00251022
-0.0026462
-0.0027852
-0.00293338
-0.002222
-0.0023702
-0.00250896
-0.00264482
-0.00278354
-0.00293123
-0.00222207
-0.00236964
-0.00250799
-0.00264349
-0.00278173
-0.00292866
-0.00222237
-0.00236931
-0.00250718
-0.00264223
-0.00277995
-0.00292613
-0.00222275
-0.00236912
-0.00250652
-0.00264113
-0.00277834
-0.00292385
-0.00222313
-0.00236903
-0.00250602
-0.00264023
-0.00277699
-0.00292196
-0.00225334
-0.00238986
-0.00252037
-0.00264975
-0.00278293
-0.00292419
-0.00225011
-0.00238732
-0.0025185
-0.00264843
-0.00278194
-0.00292347
-0.0022485
-0.00238569
-0.00251699
-0.00264701
-0.00278039
-0.00292167
-0.00224791
-0.00238472
-0.00251581
-0.00264562
-0.00277866
-0.00291941
-0.00224772
-0.00238405
-0.00251483
-0.00264433
-0.00277695
-0.00291715
-0.00224778
-0.00238362
-0.00251403
-0.0026432
-0.00277542
-0.00291509
-0.00224794
-0.00238334
-0.00251341
-0.00264227
-0.00277412
-0.00291335
-0.00228071
-0.00240543
-0.00252618
-0.00264629
-0.00276889
-0.00289845
-0.00227691
-0.00240261
-0.0025242
-0.00264502
-0.0027683
-0.00289814
-0.00227478
-0.00240075
-0.00252263
-0.00264369
-0.00276714
-0.00289679
-0.00227367
-0.00239954
-0.00252139
-0.00264239
-0.0027657
-0.00289497
-0.00227301
-0.00239865
-0.00252033
-0.00264117
-0.00276424
-0.00289308
-0.00227266
-0.00239801
-0.00251948
-0.00264009
-0.00276288
-0.00289132
-0.00227249
-0.00239758
-0.00251881
-0.00263919
-0.00276172
-0.00288981
-0.00310089
-0.00329743
-0.00354168
-0.00384869
-0.00424646
-0.00464176
-0.00464391
-0.0030993
-0.0032946
-0.00353549
-0.00383537
-0.00422719
-0.00465045
-0.00468957
-0.00309596
-0.00328893
-0.00352513
-0.00381849
-0.00419695
-0.00460557
-0.0046395
-0.00309207
-0.00328274
-0.0035148
-0.00380381
-0.00417495
-0.00457666
-0.00460811
-0.00308837
-0.00327716
-0.00350598
-0.0037924
-0.0041597
-0.00455847
-0.0045893
-0.00308515
-0.00327255
-0.00349919
-0.00378387
-0.0041489
-0.00454599
-0.00457653
-0.00308255
-0.00326897
-0.00349419
-0.00377775
-0.00414147
-0.00453764
-0.00456808
-0.0030805
-0.00325845
-0.00346207
-0.00370923
-0.00401655
-0.00431005
-0.00434236
-0.00307966
-0.00325723
-0.00345961
-0.00370021
-0.00400101
-0.00430858
-0.00435742
-0.00307708
-0.00325327
-0.00345379
-0.00368827
-0.00397917
-0.00427821
-0.00432686
-0.00307388
-0.00324861
-0.00344744
-0.0036777
-0.00396353
-0.00425882
-0.00430745
-0.00307076
-0.0032443
-0.00344197
-0.00366925
-0.00395242
-0.00424638
-0.00429561
-0.00306796
-0.00324056
-0.00343728
-0.00366265
-0.00394417
-0.00423732
-0.00428701
-0.00306565
-0.00323754
-0.00343355
-0.00365774
-0.00393829
-0.00423099
-0.00428098
-0.00303788
-0.00319063
-0.00335746
-0.00354226
-0.00374935
-0.00392299
-0.00393633
-0.00303772
-0.00319052
-0.00335676
-0.00353825
-0.00374222
-0.00392079
-0.00393388
-0.00303594
-0.00318795
-0.00335291
-0.00353124
-0.00373025
-0.00390615
-0.00392088
-0.00303348
-0.00318453
-0.00334818
-0.00352422
-0.00372045
-0.00389511
-0.00391113
-0.00303098
-0.00318119
-0.00334379
-0.0035182
-0.00371286
-0.0038871
-0.00390415
-0.00302867
-0.0031782
-0.00333998
-0.00351325
-0.0037069
-0.00388087
-0.00389866
-0.00302672
-0.00317572
-0.00333691
-0.00350944
-0.00370246
-0.00387631
-0.0038946
-8.76956e-05
-0.000416335
-0.000923615
-0.00135854
-0.00165605
-0.00187704
-0.00206214
-9.05899e-05
-0.000419266
-0.000926265
-0.00136065
-0.00165757
-0.00187802
-0.00206281
-9.18673e-05
-0.000420582
-0.000927477
-0.00136163
-0.0016583
-0.00187849
-0.00206315
-9.1868e-05
-0.000420583
-0.000927478
-0.00136164
-0.0016583
-0.00187849
-0.00206315
-9.05915e-05
-0.000419268
-0.000926266
-0.00136065
-0.00165757
-0.00187802
-0.00206281
-8.76981e-05
-0.000416337
-0.000923618
-0.00135854
-0.00165605
-0.00187704
-0.00206214
-0.000628844
-0.000896382
-0.00125652
-0.00154871
-0.00176226
-0.00194154
-0.00210248
-0.000630421
-0.000898184
-0.00125824
-0.0015501
-0.00176328
-0.00194223
-0.00210277
-0.000631116
-0.000899001
-0.00125904
-0.00155076
-0.00176378
-0.00194257
-0.00210292
-0.000631117
-0.000899002
-0.00125904
-0.00155076
-0.00176378
-0.00194257
-0.00210292
-0.000630422
-0.000898185
-0.00125824
-0.0015501
-0.00176328
-0.00194223
-0.00210277
-0.000628847
-0.000896384
-0.00125652
-0.00154871
-0.00176226
-0.00194154
-0.00210248
-0.00110571
-0.0012572
-0.00147866
-0.00167892
-0.00184643
-0.00199869
-0.00214047
-0.00110635
-0.00125817
-0.00147968
-0.00167976
-0.00184703
-0.00199905
-0.00214061
-0.00110662
-0.00125862
-0.00148015
-0.00168016
-0.00184732
-0.00199923
-0.00214068
-0.00110662
-0.00125862
-0.00148016
-0.00168016
-0.00184732
-0.00199923
-0.00214068
-0.00110635
-0.00125818
-0.00147968
-0.00167976
-0.00184703
-0.00199905
-0.00214061
-0.00110571
-0.00125721
-0.00147866
-0.00167892
-0.00184643
-0.00199869
-0.00214047
-0.00222345
-0.00236898
-0.00250565
-0.00263954
-0.00277596
-0.00292053
-0.00222367
-0.00236896
-0.0025054
-0.00263908
-0.00277527
-0.00291957
-0.00222378
-0.00236895
-0.00250528
-0.00263885
-0.00277492
-0.00291909
-0.00222378
-0.00236895
-0.00250528
-0.00263885
-0.00277492
-0.00291909
-0.00222367
-0.00236895
-0.0025054
-0.00263908
-0.00277526
-0.00291956
-0.00222345
-0.00236898
-0.00250564
-0.00263954
-0.00277596
-0.00292052
-0.0022481
-0.00238316
-0.00251296
-0.00264156
-0.00277313
-0.00291202
-0.00224823
-0.00238305
-0.00251266
-0.00264109
-0.00277246
-0.00291112
-0.0022483
-0.002383
-0.00251252
-0.00264085
-0.00277212
-0.00291067
-0.0022483
-0.002383
-0.00251252
-0.00264084
-0.00277212
-0.00291067
-0.00224823
-0.00238305
-0.00251266
-0.00264108
-0.00277245
-0.00291112
-0.0022481
-0.00238316
-0.00251296
-0.00264156
-0.00277312
-0.00291201
-0.00227242
-0.00239728
-0.00251832
-0.00263851
-0.00276082
-0.00288863
-0.00227239
-0.00239709
-0.00251799
-0.00263805
-0.0027602
-0.00288784
-0.00227238
-0.00239701
-0.00251783
-0.00263782
-0.00275989
-0.00288743
-0.00227238
-0.00239701
-0.00251783
-0.00263782
-0.00275989
-0.00288743
-0.00227239
-0.00239709
-0.00251799
-0.00263805
-0.0027602
-0.00288783
-0.00227242
-0.00239728
-0.00251832
-0.00263851
-0.00276081
-0.00288863
-0.00308061
-0.00326637
-0.00349072
-0.00377357
-0.00413657
-0.00453229
-0.00456274
-0.00307932
-0.00326469
-0.00348852
-0.00377098
-0.00413359
-0.0045291
-0.00455959
-0.00307869
-0.00326387
-0.00348746
-0.00376974
-0.00413219
-0.00452761
-0.00455813
-0.00307868
-0.00326387
-0.00348745
-0.00376974
-0.00413219
-0.00452761
-0.00455812
-0.00307932
-0.00326469
-0.00348851
-0.00377098
-0.00413359
-0.00452909
-0.00455958
-0.0030806
-0.00326636
-0.0034907
-0.00377356
-0.00413655
-0.00453227
-0.00456272
-0.0030639
-0.00323528
-0.00343082
-0.0036543
-0.00393431
-0.00422679
-0.00427702
-0.00306273
-0.0032338
-0.00342905
-0.00365213
-0.00393185
-0.00422424
-0.00427462
-0.00306214
-0.00323307
-0.00342818
-0.00365108
-0.00393067
-0.00422303
-0.00427349
-0.00306214
-0.00323306
-0.00342818
-0.00365108
-0.00393067
-0.00422302
-0.00427349
-0.00306272
-0.00323379
-0.00342904
-0.00365212
-0.00393184
-0.00422423
-0.00427461
-0.00306389
-0.00323527
-0.00343081
-0.00365429
-0.00393429
-0.00422678
-0.004277
-0.00302522
-0.00317383
-0.00333462
-0.00350669
-0.00369936
-0.00387317
-0.00389182
-0.0030242
-0.00317257
-0.00333312
-0.00350493
-0.0036974
-0.00387121
-0.00389009
-0.00302369
-0.00317195
-0.00333238
-0.00350407
-0.00369646
-0.00387027
-0.00388926
-0.00302369
-0.00317194
-0.00333238
-0.00350406
-0.00369646
-0.00387027
-0.00388926
-0.0030242
-0.00317257
-0.00333312
-0.00350492
-0.0036974
-0.0038712
-0.00389008
-0.00302521
-0.00317382
-0.00333461
-0.00350668
-0.00369935
-0.00387316
-0.00389181
-8.23963e-05
-0.000411102
-0.000919033
-0.001355
-0.0016536
-0.0018755
-0.00206116
-7.32785e-05
-0.000402316
-0.00091163
-0.00134956
-0.00165
-0.00187339
-0.00206003
-5.84256e-05
-0.000388271
-0.000900203
-0.00134159
-0.00164506
-0.00187068
-0.0020588
-3.45721e-05
-0.00036666
-0.000883376
-0.00133055
-0.00163869
-0.00186743
-0.00205747
1.01465e-05
-0.000327876
-0.000856335
-0.00131529
-0.00163097
-0.00186385
-0.00205619
8.46226e-05
-0.000257486
-0.000809862
-0.0012941
-0.00162337
-0.00186139
-0.00205586
8.65192e-09
-0.000277596
-0.000780389
-0.00127641
-0.00162113
-0.00186349
-0.0020581
-0.000625964
-0.000893228
-0.00125363
-0.00154645
-0.00176067
-0.00194051
-0.00210204
-0.000621047
-0.000888077
-0.00124913
-0.00154313
-0.00175845
-0.00193914
-0.00210139
-0.000613287
-0.000880228
-0.00124258
-0.00153861
-0.00175567
-0.00193755
-0.00210064
-0.000601324
-0.000868951
-0.00123375
-0.00153299
-0.00175254
-0.00193598
-0.00210007
-0.000577879
-0.000848911
-0.00122043
-0.00152607
-0.00174938
-0.00193473
-0.00209995
-0.00053631
-0.000811983
-0.00119885
-0.00151835
-0.00174803
-0.00193527
-0.00210122
-0.000542904
-0.000804707
-0.00118601
-0.00151523
-0.0017522
-0.00194016
-0.00210516
-0.00110453
-0.00125554
-0.00147699
-0.0016776
-0.00184553
-0.00199817
-0.0021403
-0.00110251
-0.00125292
-0.00147451
-0.00167577
-0.00184436
-0.00199755
-0.00214013
-0.00109946
-0.00124919
-0.00147118
-0.0016735
-0.00184308
-0.00199699
-0.0021401
-0.00109522
-0.00124439
-0.00146719
-0.00167108
-0.00184197
-0.00199674
-0.00214039
-0.00108794
-0.00123712
-0.00146204
-0.00166871
-0.00184138
-0.00199707
-0.00214123
-0.00107834
-0.00122744
-0.00145665
-0.0016682
-0.00184317
-0.00199937
-0.00214354
-0.00108482
-0.00123277
-0.00146085
-0.00167442
-0.0018506
-0.00200573
-0.00214847
-0.00222313
-0.00236902
-0.00250601
-0.00264022
-0.00277699
-0.00292195
-0.00222275
-0.00236912
-0.00250652
-0.00264113
-0.00277833
-0.00292384
-0.00222237
-0.0023693
-0.00250717
-0.00264222
-0.00277994
-0.00292611
-0.00222207
-0.00236964
-0.00250798
-0.00264348
-0.00278172
-0.00292865
-0.00222199
-0.0023702
-0.00250895
-0.00264481
-0.00278353
-0.00293121
-0.00222268
-0.00237131
-0.00251021
-0.00264619
-0.00278518
-0.00293336
-0.00222479
-0.00237322
-0.00251181
-0.00264749
-0.00278628
-0.00293446
-0.00224794
-0.00238333
-0.00251341
-0.00264227
-0.00277412
-0.00291334
-0.00224778
-0.00238361
-0.00251403
-0.0026432
-0.00277541
-0.00291507
-0.00224772
-0.00238405
-0.00251482
-0.00264433
-0.00277694
-0.00291713
-0.0022479
-0.00238471
-0.00251581
-0.00264562
-0.00277864
-0.0029194
-0.0022485
-0.00238569
-0.00251699
-0.002647
-0.00278037
-0.00292165
-0.00225011
-0.00238732
-0.00251849
-0.00264842
-0.00278192
-0.00292345
-0.00225334
-0.00238986
-0.00252037
-0.00264975
-0.00278292
-0.00292417
-0.00227249
-0.00239757
-0.00251881
-0.00263919
-0.00276172
-0.0028898
-0.00227266
-0.00239801
-0.00251947
-0.00264008
-0.00276287
-0.00289131
-0.00227301
-0.00239864
-0.00252033
-0.00264116
-0.00276423
-0.00289307
-0.00227367
-0.00239953
-0.00252138
-0.00264238
-0.00276569
-0.00289495
-0.00227478
-0.00240074
-0.00252263
-0.00264368
-0.00276712
-0.00289678
-0.00227692
-0.00240261
-0.0025242
-0.00264501
-0.00276829
-0.00289813
-0.00228071
-0.00240543
-0.00252618
-0.00264628
-0.00276888
-0.00289843
-0.00308253
-0.00326895
-0.00349418
-0.00377773
-0.00414145
-0.00453762
-0.00456806
-0.00308513
-0.00327253
-0.00349916
-0.00378385
-0.00414888
-0.00454596
-0.0045765
-0.00308835
-0.00327714
-0.00350595
-0.00379237
-0.00415967
-0.00455843
-0.00458926
-0.00309205
-0.00328272
-0.00351477
-0.00380378
-0.00417491
-0.00457662
-0.00460807
-0.00309594
-0.0032889
-0.0035251
-0.00381845
-0.00419691
-0.00460552
-0.00463944
-0.00309927
-0.00329457
-0.00353545
-0.00383533
-0.00422714
-0.00465039
-0.0046895
-0.00310086
-0.00329741
-0.00354165
-0.00384865
-0.0042464
-0.0046417
-0.00464384
-0.00306564
-0.00323753
-0.00343353
-0.00365772
-0.00393827
-0.00423097
-0.00428096
-0.00306795
-0.00324055
-0.00343726
-0.00366263
-0.00394415
-0.00423729
-0.00428698
-0.00307074
-0.00324428
-0.00344194
-0.00366922
-0.00395239
-0.00424634
-0.00429558
-0.00307386
-0.00324859
-0.00344742
-0.00367766
-0.00396349
-0.00425878
-0.00430741
-0.00307706
-0.00325325
-0.00345376
-0.00368823
-0.00397913
-0.00427816
-0.0043268
-0.00307964
-0.0032572
-0.00345958
-0.00370017
-0.00400096
-0.00430853
-0.00435736
-0.00308048
-0.00325843
-0.00346204
-0.00370919
-0.0040165
-0.00431
-0.00434229
-0.00302671
-0.0031757
-0.00333689
-0.00350942
-0.00370244
-0.00387629
-0.00389458
-0.00302866
-0.00317818
-0.00333996
-0.00351323
-0.00370687
-0.00388085
-0.00389863
-0.00303096
-0.00318117
-0.00334377
-0.00351817
-0.00371283
-0.00388707
-0.00390411
-0.00303346
-0.0031845
-0.00334815
-0.00352419
-0.00372042
-0.00389507
-0.00391109
-0.00303592
-0.00318792
-0.00335288
-0.00353121
-0.00373021
-0.00390611
-0.00392083
-0.0030377
-0.0031905
-0.00335673
-0.00353821
-0.00374217
-0.00392074
-0.00393382
-0.00303786
-0.00319061
-0.00335743
-0.00354222
-0.0037493
-0.00392293
-0.00393627
-0.00148229
-0.00154225
-0.00167104
-0.0018166
-0.00195157
-0.00207787
-0.00219805
-0.00146737
-0.00152728
-0.00166089
-0.00180852
-0.0019442
-0.00207176
-0.0021933
-0.00146271
-0.00152524
-0.00165956
-0.0018061
-0.00194112
-0.00206877
-0.00219064
-0.001462
-0.00152614
-0.00166048
-0.00180602
-0.00194028
-0.00206757
-0.0021893
-0.00146172
-0.00152702
-0.00166151
-0.00180647
-0.00194014
-0.00206703
-0.00218852
-0.0014617
-0.00152798
-0.00166264
-0.0018072
-0.0019404
-0.00206692
-0.00218812
-0.0014617
-0.00152876
-0.00166362
-0.00180793
-0.00194079
-0.00206701
-0.00218795
-0.00176936
-0.00178287
-0.00185536
-0.0019535
-0.00205316
-0.00215219
-0.00225034
-0.00175461
-0.00176804
-0.00184536
-0.00194575
-0.00204638
-0.00214664
-0.00224601
-0.00174668
-0.00176264
-0.00184156
-0.00194204
-0.00204275
-0.00214341
-0.00224327
-0.00174299
-0.00176065
-0.00184018
-0.00194049
-0.00204103
-0.0021417
-0.00224165
-0.00174057
-0.00175941
-0.00183943
-0.00193967
-0.00204006
-0.00214064
-0.00224056
-0.00173892
-0.00175873
-0.00183914
-0.00193934
-0.00203958
-0.00214004
-0.00223986
-0.00173775
-0.00175833
-0.00183907
-0.00193925
-0.00203939
-0.00213972
-0.00223944
-0.00199131
-0.00197956
-0.00201618
-0.00207873
-0.00214903
-0.00222412
-0.00230203
-0.00198029
-0.00196755
-0.00200759
-0.00207178
-0.00214304
-0.00221925
-0.00229822
-0.00197253
-0.00196151
-0.002003
-0.00206768
-0.00213935
-0.0022161
-0.00229559
-0.00196792
-0.00195828
-0.00200048
-0.00206537
-0.0021372
-0.00221415
-0.00229387
-0.00196463
-0.00195602
-0.00199875
-0.00206381
-0.00213574
-0.00221279
-0.00229261
-0.00196222
-0.00195446
-0.00199762
-0.00206282
-0.00213481
-0.00221188
-0.00229172
-0.00196045
-0.00195337
-0.00199688
-0.0020622
-0.00213422
-0.00221129
-0.00229113
-0.00216799
-0.00213981
-0.00215219
-0.00218903
-0.0022364
-0.0022913
-0.00235122
-0.00216016
-0.00213029
-0.00214507
-0.00218316
-0.00223136
-0.00228719
-0.00234797
-0.00215345
-0.00212464
-0.00214059
-0.00217924
-0.00222793
-0.0022843
-0.00234558
-0.0021488
-0.00212106
-0.00213769
-0.00217669
-0.00222568
-0.00228233
-0.00234389
-0.00214527
-0.00211836
-0.00213553
-0.00217482
-0.00222401
-0.00228086
-0.00234258
-0.00214255
-0.00211637
-0.00213397
-0.00217348
-0.00222283
-0.00227979
-0.00234162
-0.0021405
-0.00211491
-0.00213287
-0.00217256
-0.00222202
-0.00227905
-0.00234092
-0.00230718
-0.00227052
-0.00226619
-0.00228455
-0.00231414
-0.0023523
-0.00239659
-0.00230217
-0.0022631
-0.00226053
-0.00227982
-0.00231002
-0.00234891
-0.00239388
-0.00229682
-0.0022583
-0.0022566
-0.00227637
-0.00230701
-0.00234638
-0.00239179
-0.00229266
-0.00225489
-0.00225379
-0.00227392
-0.00230487
-0.00234453
-0.00239022
-0.0022893
-0.00225218
-0.00225156
-0.002272
-0.00230319
-0.00234307
-0.00238896
-0.00228662
-0.00225008
-0.00224986
-0.00227055
-0.00230194
-0.00234197
-0.00238798
-0.00228456
-0.00224849
-0.00224861
-0.0022695
-0.00230102
-0.00234116
-0.00238726
-0.00241815
-0.00237655
-0.00236124
-0.00236621
-0.00238198
-0.00240645
-0.00243742
-0.00241517
-0.00237093
-0.00235689
-0.00236251
-0.0023787
-0.00240371
-0.0024352
-0.00241112
-0.00236708
-0.00235366
-0.00235963
-0.00237617
-0.00240156
-0.00243342
-0.00240767
-0.00236414
-0.00235116
-0.00235744
-0.00237425
-0.00239991
-0.00243202
-0.00240475
-0.00236168
-0.0023491
-0.00235565
-0.00237269
-0.00239856
-0.00243086
-0.00240235
-0.00235971
-0.00234746
-0.00235424
-0.00237147
-0.0023975
-0.00242994
-0.00240046
-0.00235819
-0.00234622
-0.00235318
-0.00237055
-0.00239669
-0.00242923
-0.00231263
-0.002423
-0.0025311
-0.00263892
-0.00274836
-0.00286175
-0.00230901
-0.00242033
-0.00252924
-0.00263775
-0.00274781
-0.00286164
-0.00230673
-0.00241844
-0.00252772
-0.00263653
-0.00274681
-0.00286068
-0.00230537
-0.00241714
-0.00252649
-0.00263535
-0.00274559
-0.00285929
-0.00230445
-0.00241614
-0.00252544
-0.00263423
-0.00274434
-0.00285779
-0.00230385
-0.0024154
-0.00252458
-0.00263324
-0.00274317
-0.00285636
-0.00230348
-0.00241486
-0.0025239
-0.00263241
-0.00274216
-0.00285511
-0.00234677
-0.0024416
-0.00253551
-0.00262937
-0.00272403
-0.00282037
-0.00234348
-0.00243917
-0.00253383
-0.00262833
-0.00272359
-0.0028204
-0.00234122
-0.00243736
-0.00253241
-0.00262725
-0.00272278
-0.00281977
-0.00233973
-0.00243604
-0.00253124
-0.0026262
-0.00272179
-0.00281875
-0.00233865
-0.00243499
-0.00253023
-0.00262519
-0.00272075
-0.00281761
-0.00233789
-0.00243418
-0.00252939
-0.00262429
-0.00271977
-0.00281649
-0.00233737
-0.00243359
-0.00252872
-0.00262354
-0.00271892
-0.00281549
-0.00238101
-0.00246028
-0.00253964
-0.0026191
-0.00269871
-0.00277836
-0.00237809
-0.00245813
-0.00253815
-0.0026182
-0.00269835
-0.00277848
-0.00237596
-0.00245644
-0.00253687
-0.00261727
-0.00269771
-0.00277807
-0.00237446
-0.00245516
-0.00253579
-0.00261635
-0.00269691
-0.00277733
-0.00237331
-0.00245412
-0.00253484
-0.00261548
-0.00269607
-0.00277648
-0.00237245
-0.0024533
-0.00253405
-0.00261469
-0.00269527
-0.00277562
-0.00237184
-0.00245268
-0.00253341
-0.00261403
-0.00269456
-0.00277484
-0.00241401
-0.00247838
-0.00254356
-0.00260895
-0.00267399
-0.002738
-0.0024115
-0.00247653
-0.00254227
-0.00260817
-0.00267369
-0.00273813
-0.00240957
-0.00247502
-0.00254114
-0.00260737
-0.00267318
-0.00273786
-0.00240814
-0.00247383
-0.00254016
-0.00260658
-0.00267254
-0.00273733
-0.002407
-0.00247283
-0.00253929
-0.00260582
-0.00267186
-0.0027367
-0.00240612
-0.00247203
-0.00253856
-0.00260513
-0.0026712
-0.00273605
-0.00240546
-0.00247141
-0.00253797
-0.00260455
-0.00267062
-0.00273545
-0.0024448
-0.00249539
-0.00254723
-0.00259936
-0.00265084
-0.00270063
-0.00244269
-0.00249382
-0.00254614
-0.0025987
-0.00265059
-0.00270075
-0.00244101
-0.0024925
-0.00254515
-0.00259801
-0.00265017
-0.00270056
-0.00243969
-0.00249142
-0.00254429
-0.00259734
-0.00264965
-0.00270017
-0.00243861
-0.0024905
-0.00254351
-0.00259668
-0.0026491
-0.0026997
-0.00243775
-0.00248975
-0.00254284
-0.00259609
-0.00264856
-0.0026992
-0.0024371
-0.00248916
-0.0025423
-0.00259559
-0.00264809
-0.00269874
-0.00247279
-0.00251096
-0.00255062
-0.00259062
-0.00262979
-0.00266694
-0.00247105
-0.00250965
-0.0025497
-0.00259006
-0.00262958
-0.00266703
-0.00246961
-0.00250852
-0.00254886
-0.00258947
-0.00262923
-0.00266689
-0.00246844
-0.00250757
-0.0025481
-0.00258889
-0.0026288
-0.0026666
-0.00246746
-0.00250674
-0.00254742
-0.00258833
-0.00262835
-0.00266624
-0.00246665
-0.00250605
-0.00254683
-0.00258782
-0.00262791
-0.00266585
-0.00246603
-0.0025055
-0.00254634
-0.00258739
-0.00262752
-0.00266549
-0.00298063
-0.00310584
-0.00323594
-0.00336951
-0.00350258
-0.00359211
-0.00357969
-0.00298084
-0.00310632
-0.00323639
-0.00336888
-0.00350227
-0.00359629
-0.00357972
-0.00297976
-0.00310492
-0.00323439
-0.0033655
-0.00349718
-0.00359173
-0.00357708
-0.00297802
-0.00310264
-0.00323135
-0.00336131
-0.00349177
-0.00358637
-0.00357328
-0.00297615
-0.00310025
-0.00322829
-0.00335739
-0.00348712
-0.00358182
-0.00356972
-0.00297436
-0.00309801
-0.00322551
-0.00335398
-0.0034832
-0.00357798
-0.00356662
-0.00297281
-0.00309609
-0.00322319
-0.00335122
-0.00348013
-0.00357498
-0.00356416
-0.00291865
-0.0030182
-0.0031165
-0.00321038
-0.00329442
-0.00333766
-0.00330924
-0.00291911
-0.0030191
-0.00311771
-0.00321145
-0.00329662
-0.00334388
-0.00331225
-0.00291855
-0.00301851
-0.00311695
-0.00321017
-0.0032949
-0.0033433
-0.00331315
-0.00291739
-0.00301711
-0.00311519
-0.0032079
-0.00329218
-0.00334099
-0.00331209
-0.00291606
-0.0030155
-0.00311323
-0.00320554
-0.00328956
-0.00333867
-0.00331059
-0.00291473
-0.00301391
-0.00311134
-0.00320333
-0.00328717
-0.0033365
-0.00330907
-0.00291355
-0.0030125
-0.00310969
-0.00320146
-0.00328517
-0.00333468
-0.00330773
-0.00285747
-0.00293456
-0.00300667
-0.00307009
-0.00312019
-0.0031358
-0.0030975
-0.00285803
-0.00293558
-0.00300812
-0.00307171
-0.00312264
-0.00314094
-0.00309983
-0.00285779
-0.00293546
-0.00300805
-0.00307154
-0.00312244
-0.00314167
-0.00310136
-0.00285705
-0.00293466
-0.00300714
-0.00307045
-0.00312127
-0.00314093
-0.00310148
-0.00285613
-0.00293363
-0.00300596
-0.00306913
-0.00311993
-0.00313992
-0.00310112
-0.00285518
-0.00293254
-0.00300474
-0.00306778
-0.00311857
-0.00313881
-0.00310055
-0.0028543
-0.00293155
-0.00300362
-0.00306657
-0.00311735
-0.00313779
-0.00309994
-0.00279986
-0.00285774
-0.00290871
-0.00294929
-0.00297571
-0.0029727
-0.00292634
-0.0028004
-0.0028587
-0.00291008
-0.00295089
-0.00297795
-0.00297673
-0.00292751
-0.00280033
-0.00285881
-0.00291034
-0.00295122
-0.00297839
-0.00297785
-0.00292895
-0.00279987
-0.0028584
-0.00290994
-0.00295081
-0.00297805
-0.00297788
-0.00292957
-0.00279925
-0.00285776
-0.00290928
-0.00295014
-0.00297746
-0.0029776
-0.00292976
-0.00279858
-0.00285705
-0.00290853
-0.00294937
-0.00297674
-0.00297712
-0.00292971
-0.00279794
-0.00285636
-0.0029078
-0.00294862
-0.00297605
-0.00297662
-0.00292955
-0.00274734
-0.00278906
-0.0028231
-0.00284652
-0.00285636
-0.00284053
-0.00279114
-0.00274781
-0.00278989
-0.00282428
-0.00284786
-0.00285819
-0.00284369
-0.00279111
-0.00274783
-0.0027901
-0.00282466
-0.00284834
-0.00285879
-0.00284476
-0.00279217
-0.00274755
-0.00278991
-0.00282453
-0.00284828
-0.00285882
-0.00284508
-0.00279284
-0.00274713
-0.00278953
-0.00282419
-0.00284798
-0.00285863
-0.00284513
-0.00279321
-0.00274665
-0.00278906
-0.00282374
-0.00284756
-0.0028583
-0.00284499
-0.00279338
-0.00274619
-0.0027886
-0.00282327
-0.00284712
-0.00285792
-0.00284478
-0.00279343
-0.00270058
-0.00272887
-0.00274943
-0.00275985
-0.00275795
-0.00273396
-0.00268311
-0.00270096
-0.00272954
-0.00275036
-0.00276088
-0.0027593
-0.00273628
-0.00268231
-0.00270101
-0.00272976
-0.00275073
-0.00276133
-0.00275983
-0.00273712
-0.00268294
-0.00270083
-0.00272968
-0.00275074
-0.0027614
-0.00275999
-0.00273747
-0.00268346
-0.00270054
-0.00272945
-0.00275057
-0.00276129
-0.00275997
-0.00273762
-0.0026838
-0.0027002
-0.00272915
-0.0027503
-0.00276107
-0.00275983
-0.00273763
-0.00268402
-0.00269986
-0.00272883
-0.00275001
-0.00276082
-0.00275964
-0.00273756
-0.00268414
-0.00146164
-0.00152928
-0.00166432
-0.0018085
-0.00194115
-0.00206715
-0.00218789
-0.00146156
-0.00152958
-0.00166476
-0.00180889
-0.00194141
-0.00206727
-0.00218788
-0.00146151
-0.00152972
-0.00166497
-0.00180908
-0.00194155
-0.00206733
-0.00218788
-0.00146151
-0.00152972
-0.00166497
-0.00180908
-0.00194155
-0.00206733
-0.00218788
-0.00146157
-0.00152959
-0.00166476
-0.00180889
-0.00194142
-0.00206727
-0.00218788
-0.00146165
-0.00152929
-0.00166432
-0.0018085
-0.00194116
-0.00206715
-0.00218789
-0.00173691
-0.00175806
-0.00183905
-0.00193926
-0.00203933
-0.00213956
-0.00223918
-0.00173636
-0.00175788
-0.00183906
-0.00193928
-0.00203932
-0.00213949
-0.00223904
-0.00173608
-0.00175779
-0.00183906
-0.0019393
-0.00203932
-0.00213946
-0.00223897
-0.00173608
-0.00175779
-0.00183906
-0.0019393
-0.00203932
-0.00213946
-0.00223897
-0.00173636
-0.00175788
-0.00183906
-0.00193928
-0.00203932
-0.00213949
-0.00223904
-0.00173691
-0.00175806
-0.00183906
-0.00193926
-0.00203933
-0.00213956
-0.00223918
-0.00195917
-0.0019526
-0.00199639
-0.00206181
-0.00213386
-0.00221092
-0.00229073
-0.00195833
-0.00195211
-0.00199609
-0.00206158
-0.00213365
-0.0022107
-0.00229049
-0.00195792
-0.00195186
-0.00199595
-0.00206147
-0.00213355
-0.0022106
-0.00229038
-0.00195792
-0.00195186
-0.00199595
-0.00206147
-0.00213355
-0.0022106
-0.00229038
-0.00195833
-0.00195211
-0.00199609
-0.00206158
-0.00213365
-0.0022107
-0.00229049
-0.00195917
-0.0019526
-0.00199639
-0.00206181
-0.00213386
-0.00221092
-0.00229073
-0.00213901
-0.00211387
-0.0021321
-0.00217193
-0.00222147
-0.00227854
-0.00234045
-0.00213804
-0.0021132
-0.00213162
-0.00217154
-0.00222113
-0.00227823
-0.00234015
-0.00213756
-0.00211287
-0.00213138
-0.00217135
-0.00222097
-0.00227808
-0.00234
-0.00213756
-0.00211287
-0.00213138
-0.00217135
-0.00222097
-0.00227808
-0.00234
-0.00213804
-0.0021132
-0.00213162
-0.00217154
-0.00222113
-0.00227823
-0.00234015
-0.00213901
-0.00211387
-0.0021321
-0.00217193
-0.00222147
-0.00227854
-0.00234045
-0.00228305
-0.00224735
-0.00224772
-0.00226876
-0.00230038
-0.00234059
-0.00238675
-0.00228207
-0.00224661
-0.00224715
-0.00226828
-0.00229998
-0.00234023
-0.00238642
-0.00228158
-0.00224625
-0.00224687
-0.00226805
-0.00229978
-0.00234006
-0.00238626
-0.00228158
-0.00224625
-0.00224687
-0.00226805
-0.00229978
-0.00234006
-0.00238626
-0.00228207
-0.00224661
-0.00224715
-0.00226828
-0.00229998
-0.00234023
-0.00238642
-0.00228305
-0.00224736
-0.00224772
-0.00226876
-0.00230038
-0.00234059
-0.00238675
-0.00239906
-0.00235707
-0.00234531
-0.00235242
-0.00236989
-0.00239612
-0.00242872
-0.00239813
-0.00235634
-0.00234472
-0.00235192
-0.00236947
-0.00239575
-0.00242839
-0.00239767
-0.00235598
-0.00234443
-0.00235168
-0.00236926
-0.00239556
-0.00242823
-0.00239767
-0.00235598
-0.00234443
-0.00235168
-0.00236926
-0.00239556
-0.00242823
-0.00239813
-0.00235634
-0.00234473
-0.00235192
-0.00236947
-0.00239575
-0.00242839
-0.00239906
-0.00235708
-0.00234531
-0.00235242
-0.0023699
-0.00239612
-0.00242872
-0.00297159
-0.00309461
-0.00322142
-0.00334918
-0.0034779
-0.00357282
-0.00356237
-0.00297076
-0.0030936
-0.00322024
-0.00334783
-0.00347646
-0.00357143
-0.00356122
-0.00297034
-0.0030931
-0.00321965
-0.00334717
-0.00347575
-0.00357075
-0.00356065
-0.00297034
-0.0030931
-0.00321965
-0.00334717
-0.00347575
-0.00357075
-0.00356065
-0.00297076
-0.0030936
-0.00322023
-0.00334783
-0.00347645
-0.00357143
-0.00356121
-0.00297158
-0.0030946
-0.00322141
-0.00334917
-0.00347789
-0.00357281
-0.00356236
-0.00291261
-0.00301139
-0.0031084
-0.00320002
-0.00328367
-0.00333329
-0.00330669
-0.00291195
-0.00301062
-0.00310752
-0.00319905
-0.00328267
-0.00333237
-0.00330599
-0.00291162
-0.00301023
-0.00310708
-0.00319857
-0.00328217
-0.00333192
-0.00330564
-0.00291162
-0.00301023
-0.00310708
-0.00319856
-0.00328216
-0.00333191
-0.00330564
-0.00291195
-0.00301062
-0.00310752
-0.00319905
-0.00328266
-0.00333237
-0.00330598
-0.0029126
-0.00301138
-0.00310839
-0.00320001
-0.00328366
-0.00333328
-0.00330668
-0.00285358
-0.00293074
-0.00300272
-0.00306561
-0.00311638
-0.00313696
-0.00309943
-0.00285308
-0.00293017
-0.00300209
-0.00306494
-0.00311572
-0.0031364
-0.00309906
-0.00285282
-0.00292988
-0.00300177
-0.0030646
-0.00311539
-0.00313611
-0.00309886
-0.00285282
-0.00292988
-0.00300177
-0.0030646
-0.00311539
-0.00313611
-0.00309886
-0.00285308
-0.00293017
-0.00300209
-0.00306494
-0.00311572
-0.00313639
-0.00309905
-0.00285358
-0.00293073
-0.00300271
-0.0030656
-0.00311638
-0.00313695
-0.00309941
-0.00279741
-0.00285579
-0.00290719
-0.002948
-0.00297546
-0.00297617
-0.00292936
-0.00279703
-0.00285538
-0.00290675
-0.00294756
-0.00297505
-0.00297585
-0.00292921
-0.00279683
-0.00285516
-0.00290653
-0.00294733
-0.00297484
-0.00297568
-0.00292913
-0.00279683
-0.00285516
-0.00290653
-0.00294733
-0.00297484
-0.00297568
-0.00292913
-0.00279703
-0.00285537
-0.00290675
-0.00294755
-0.00297505
-0.00297585
-0.00292921
-0.0027974
-0.00285578
-0.00290718