/*--------------------------------*- C++ -*----------------------------------*\
  =========                 |
  \\      /  F ield         | OpenFOAM: The Open Source CFD Toolbox
   \\    /   O peration     | Website:  https://openfoam.org
    \\  /    A nd           | Version:  7
     \\/     M anipulation  |
\*---------------------------------------------------------------------------*/
FoamFile
{
    version     2.0;
    format      ascii;
    class       volVectorField;
    location    "2.5";
    object      U;
}
// * * * * * * * * * * * * * * * * * * * * * * * * * * * * * * * * * * * * * //

dimensions      [0 1 -1 0 0 0 0];

internalField   nonuniform List<vector> 
7784
(
(1.04886 -9.56053e-05 -0.000194172)
(1.04891 -7.60609e-05 -0.000147076)
(1.04899 -4.33115e-05 -6.41958e-05)
(1.04906 -2.2326e-05 -1.67836e-05)
(1.04908 -1.27884e-05 -1.47423e-06)
(1.04908 -7.93365e-06 2.29014e-06)
(1.04909 -4.97752e-06 2.64125e-06)
(1.04889 -8.25782e-05 -0.000155101)
(1.04895 -6.49668e-05 -0.000118332)
(1.04902 -3.75825e-05 -5.17751e-05)
(1.04907 -2.10563e-05 -1.292e-05)
(1.04909 -1.34715e-05 -2.28445e-07)
(1.04909 -9.05418e-06 2.80042e-06)
(1.04909 -6.0232e-06 2.83757e-06)
(1.04891 -4.07412e-05 -0.000137686)
(1.04897 -3.39713e-05 -0.000105089)
(1.04904 -2.36831e-05 -4.51434e-05)
(1.04908 -1.6245e-05 -1.03172e-05)
(1.04909 -1.16194e-05 8.37297e-07)
(1.04909 -8.30818e-06 3.29267e-06)
(1.04909 -5.84976e-06 3.06261e-06)
(1.04891 -2.50039e-05 -0.000131165)
(1.04897 -2.19788e-05 -9.98611e-05)
(1.04904 -1.70982e-05 -4.2136e-05)
(1.04909 -1.28705e-05 -8.88368e-06)
(1.0491 -9.68855e-06 1.52618e-06)
(1.04909 -7.21662e-06 3.64888e-06)
(1.04909 -5.2885e-06 3.25322e-06)
(1.04892 -1.75777e-05 -0.000128637)
(1.04898 -1.5779e-05 -9.77363e-05)
(1.04905 -1.28914e-05 -4.0779e-05)
(1.04909 -1.0161e-05 -8.14607e-06)
(1.0491 -7.91738e-06 1.92676e-06)
(1.0491 -6.08236e-06 3.88316e-06)
(1.04909 -4.58469e-06 3.39666e-06)
(1.04892 -1.25024e-05 -0.000127649)
(1.04898 -1.13602e-05 -9.6874e-05)
(1.04905 -9.58287e-06 -4.0177e-05)
(1.04909 -7.81421e-06 -7.77594e-06)
(1.0491 -6.25852e-06 2.1564e-06)
(1.0491 -4.92172e-06 4.03581e-06)
(1.0491 -3.78619e-06 3.50113e-06)
(1.04892 -8.78481e-06 -0.000127257)
(1.04898 -8.06231e-06 -9.65133e-05)
(1.04905 -6.94526e-06 -3.98994e-05)
(1.04909 -5.79102e-06 -7.58244e-06)
(1.0491 -4.72598e-06 2.29227e-06)
(1.0491 -3.77771e-06 4.13572e-06)
(1.0491 -2.94615e-06 3.57184e-06)
(0.407932 -0.000113615 -0.000385587)
(0.407963 -9.30923e-05 -0.000290676)
(0.408048 -5.92844e-05 -0.000139622)
(0.40814 -3.4513e-05 -5.62538e-05)
(0.408194 -2.10388e-05 -2.52804e-05)
(0.408227 -1.32783e-05 -1.26106e-05)
(0.40825 -8.43151e-06 -6.97255e-06)
(0.407963 -0.00010632 -0.000319204)
(0.408 -8.73546e-05 -0.000243358)
(0.408078 -5.78428e-05 -0.000119409)
(0.408156 -3.6341e-05 -4.95494e-05)
(0.408202 -2.38681e-05 -2.26372e-05)
(0.408232 -1.5895e-05 -1.13411e-05)
(0.408254 -1.05254e-05 -6.40339e-06)
(0.407985 -7.16687e-05 -0.00028596)
(0.408024 -6.10001e-05 -0.000218724)
(0.408098 -4.4881e-05 -0.000106888)
(0.40817 -3.15637e-05 -4.40721e-05)
(0.408211 -2.2228e-05 -1.99821e-05)
(0.408238 -1.5533e-05 -9.95393e-06)
(0.408258 -1.07326e-05 -5.69071e-06)
(0.407997 -5.06916e-05 -0.000271302)
(0.408038 -4.44402e-05 -0.000207153)
(0.408111 -3.48696e-05 -0.00010001)
(0.40818 -2.61224e-05 -4.04315e-05)
(0.408219 -1.92557e-05 -1.79952e-05)
(0.408243 -1.3987e-05 -8.82977e-06)
(0.408262 -1.00021e-05 -5.04839e-06)
(0.408005 -3.69896e-05 -0.000264357)
(0.408046 -3.29729e-05 -0.000201412)
(0.40812 -2.68741e-05 -9.62254e-05)
(0.408187 -2.09736e-05 -3.81807e-05)
(0.408224 -1.60162e-05 -1.66482e-05)
(0.408248 -1.20033e-05 -8.00192e-06)
(0.408265 -8.81863e-06 -4.53445e-06)
(0.408009 -2.66685e-05 -0.000260984)
(0.408052 -2.40712e-05 -0.000198535)
(0.408125 -2.01777e-05 -9.41699e-05)
(0.408192 -1.6253e-05 -3.68293e-05)
(0.408228 -1.2767e-05 -1.57631e-05)
(0.408251 -9.80793e-06 -7.41458e-06)
(0.408268 -7.36298e-06 -4.14486e-06)
(0.408012 -1.87693e-05 -0.000259291)
(0.408055 -1.71141e-05 -0.000197039)
(0.408128 -1.46363e-05 -9.3023e-05)
(0.408195 -1.20575e-05 -3.60093e-05)
(0.408231 -9.6692e-06 -1.51852e-05)
(0.408253 -7.56699e-06 -7.00782e-06)
(0.40827 -5.77687e-06 -3.86344e-06)
(0.121438 -7.68726e-05 -0.000379402)
(0.121424 -6.58626e-05 -0.000308536)
(0.121456 -4.62304e-05 -0.000194013)
(0.121515 -2.97502e-05 -0.000116648)
(0.121562 -1.93364e-05 -7.3257e-05)
(0.121598 -1.2707e-05 -4.70968e-05)
(0.121624 -8.33132e-06 -3.10097e-05)
(0.121453 -7.91566e-05 -0.000336937)
(0.121442 -6.7928e-05 -0.000277548)
(0.121474 -4.92037e-05 -0.000178466)
(0.121527 -3.34559e-05 -0.000109716)
(0.12157 -2.28966e-05 -6.97007e-05)
(0.121602 -1.56482e-05 -4.51647e-05)
(0.121628 -1.05903e-05 -2.9994e-05)
(0.121466 -6.37005e-05 -0.000309394)
(0.121458 -5.52677e-05 -0.000256427)
(0.121489 -4.23924e-05 -0.000166016)
(0.121539 -3.08893e-05 -0.000102924)
(0.121578 -2.22075e-05 -6.58329e-05)
(0.121608 -1.57562e-05 -4.29471e-05)
(0.121632 -1.10135e-05 -2.87371e-05)
(0.121475 -4.93702e-05 -0.000293774)
(0.12147 -4.35079e-05 -0.000243742)
(0.1215 -3.47973e-05 -0.000157615)
(0.121548 -2.65576e-05 -9.77799e-05)
(0.121585 -1.98228e-05 -6.26949e-05)
(0.121613 -1.45262e-05 -4.1041e-05)
(0.121636 -1.04436e-05 -2.7585e-05)
(0.121482 -3.77158e-05 -0.000284653)
(0.121477 -3.36692e-05 -0.000236087)
(0.121508 -2.774e-05 -0.000152178)
(0.121554 -2.18953e-05 -9.41955e-05)
(0.12159 -1.6845e-05 -6.03697e-05)
(0.121618 -1.26816e-05 -3.95456e-05)
(0.121639 -9.33304e-06 -2.66313e-05)
(0.121486 -2.80627e-05 -0.000279385)
(0.121482 -2.53224e-05 -0.000231564)
(0.121513 -2.13443e-05 -0.000148781)
(0.121559 -1.72954e-05 -9.18038e-05)
(0.121594 -1.36352e-05 -5.87244e-05)
(0.121621 -1.04921e-05 -3.84316e-05)
(0.121642 -7.87057e-06 -2.5888e-05)
(0.121488 -2.0162e-05 -0.000276328)
(0.121485 -1.8354e-05 -0.000228877)
(0.121516 -1.57324e-05 -0.000146668)
(0.121563 -1.29961e-05 -9.02351e-05)
(0.121597 -1.04358e-05 -5.75929e-05)
(0.121624 -8.16591e-06 -3.76329e-05)
(0.121644 -6.21739e-06 -2.53338e-05)
(1.04909 -3.15251e-06 1.86101e-06)
(1.04909 -1.98506e-06 8.75547e-07)
(1.04909 -1.16811e-06 -4.90572e-08)
(1.04909 -5.32067e-07 -9.47114e-07)
(1.0491 3.49611e-08 -1.95456e-06)
(1.0491 6.18822e-07 -3.25418e-06)
(1.04909 -4.0002e-06 1.92431e-06)
(1.04909 -2.6199e-06 8.98288e-07)
(1.04909 -1.60844e-06 -3.50075e-08)
(1.04909 -8.05472e-07 -9.33341e-07)
(1.0491 -1.00148e-07 -1.93896e-06)
(1.0491 5.92305e-07 -3.23433e-06)
(1.04909 -4.06574e-06 2.02468e-06)
(1.04909 -2.75265e-06 9.46305e-07)
(1.04909 -1.74578e-06 -8.81852e-09)
(1.04909 -9.30069e-07 -9.17293e-07)
(1.0491 -2.18691e-07 -1.92818e-06)
(1.0491 4.59435e-07 -3.22848e-06)
(1.04909 -3.797e-06 2.126e-06)
(1.04909 -2.63901e-06 1.00096e-06)
(1.04909 -1.71975e-06 2.17611e-08)
(1.04909 -9.60231e-07 -9.00257e-07)
(1.0491 -2.9578e-07 -1.92011e-06)
(1.0491 3.26798e-07 -3.22682e-06)
(1.04909 -3.37018e-06 2.21046e-06)
(1.04909 -2.39057e-06 1.04958e-06)
(1.04909 -1.5913e-06 5.01991e-08)
(1.0491 -9.1889e-07 -8.8377e-07)
(1.0491 -3.26492e-07 -1.91134e-06)
(1.0491 2.26179e-07 -3.22263e-06)
(1.04909 -2.83536e-06 2.27675e-06)
(1.04909 -2.04398e-06 1.08948e-06)
(1.04909 -1.38329e-06 7.43934e-08)
(1.0491 -8.1849e-07 -8.69181e-07)
(1.0491 -3.16615e-07 -1.90298e-06)
(1.0491 1.51559e-07 -3.21743e-06)
(1.0491 -2.23916e-06 2.32616e-06)
(1.0491 -1.63451e-06 1.12048e-06)
(1.0491 -1.12016e-06 9.37152e-08)
(1.0491 -6.7461e-07 -8.57184e-07)
(1.0491 -2.7556e-07 -1.89582e-06)
(1.0491 9.73283e-08 -3.21249e-06)
(0.408267 -5.3618e-06 -4.62763e-06)
(0.408277 -3.32238e-06 -3.59739e-06)
(0.408284 -1.84873e-06 -3.10833e-06)
(0.408288 -6.59185e-07 -2.94592e-06)
(0.408288 4.56622e-07 -3.07518e-06)
(0.408286 1.68914e-06 -3.44073e-06)
(0.408269 -6.92894e-06 -4.38211e-06)
(0.408279 -4.42352e-06 -3.4814e-06)
(0.408285 -2.55207e-06 -3.04778e-06)
(0.408288 -1.02169e-06 -2.91456e-06)
(0.408289 3.94713e-07 -3.0642e-06)
(0.408287 1.90357e-06 -3.47156e-06)
(0.408272 -7.30711e-06 -4.01278e-06)
(0.408281 -4.78954e-06 -3.28362e-06)
(0.408287 -2.84092e-06 -2.94325e-06)
(0.40829 -1.21847e-06 -2.86927e-06)
(0.40829 2.75553e-07 -3.06616e-06)
(0.408288 1.82453e-06 -3.54137e-06)
(0.408275 -7.00166e-06 -3.64367e-06)
(0.408283 -4.69572e-06 -3.07158e-06)
(0.408289 -2.85257e-06 -2.82676e-06)
(0.408291 -1.28956e-06 -2.81839e-06)
(0.408292 1.50114e-07 -3.06967e-06)
(0.40829 1.6133e-06 -3.60959e-06)
(0.408277 -6.31331e-06 -3.32765e-06)
(0.408285 -4.31589e-06 -2.88078e-06)
(0.40829 -2.67415e-06 -2.71756e-06)
(0.408293 -1.25825e-06 -2.76767e-06)
(0.408293 4.9406e-08 -3.06748e-06)
(0.408291 1.36078e-06 -3.65997e-06)
(0.408279 -5.36633e-06 -3.07516e-06)
(0.408287 -3.72636e-06 -2.72215e-06)
(0.408292 -2.34637e-06 -2.62357e-06)
(0.408294 -1.13859e-06 -2.72167e-06)
(0.408294 -1.93141e-08 -3.06157e-06)
(0.408292 1.0926e-06 -3.69486e-06)
(0.408281 -4.2671e-06 -2.88388e-06)
(0.408288 -2.99934e-06 -2.598e-06)
(0.408293 -1.91264e-06 -2.54794e-06)
(0.408295 -9.50131e-07 -2.68311e-06)
(0.408295 -5.5187e-08 -3.05433e-06)
(0.408293 8.28031e-07 -3.7181e-06)
(0.121643 -5.40755e-06 -2.07367e-05)
(0.121656 -3.36853e-06 -1.35956e-05)
(0.121663 -1.83765e-06 -8.1649e-06)
(0.121665 -5.61845e-07 -3.62297e-06)
(0.121663 6.66388e-07 6.75459e-07)
(0.121656 2.02177e-06 5.38429e-06)
(0.121645 -7.05943e-06 -2.01975e-05)
(0.121657 -4.50681e-06 -1.3306e-05)
(0.121664 -2.54323e-06 -8.01961e-06)
(0.121666 -8.93216e-07 -3.57462e-06)
(0.121664 6.7629e-07 6.32427e-07)
(0.121657 2.35496e-06 5.21416e-06)
(0.121648 -7.53396e-06 -1.94799e-05)
(0.121659 -4.91403e-06 -1.28995e-05)
(0.121666 -2.8419e-06 -7.80742e-06)
(0.121668 -1.0768e-06 -3.50083e-06)
(0.121666 5.89742e-07 5.77759e-07)
(0.121659 2.33876e-06 4.99729e-06)
(0.121651 -7.31075e-06 -1.87833e-05)
(0.121662 -4.86263e-06 -1.24868e-05)
(0.121668 -2.87346e-06 -7.58352e-06)
(0.121669 -1.15426e-06 -3.41732e-06)
(0.121667 4.64503e-07 5.32047e-07)
(0.121661 2.13506e-06 4.79974e-06)
(0.121654 -6.66215e-06 -1.81796e-05)
(0.121664 -4.5067e-06 -1.21152e-05)
(0.121669 -2.71246e-06 -7.37456e-06)
(0.121671 -1.14033e-06 -3.33369e-06)
(0.121669 3.39369e-07 5.00721e-07)
(0.121662 1.84568e-06 4.63977e-06)
(0.121656 -5.70953e-06 -1.76902e-05)
(0.121666 -3.91729e-06 -1.18037e-05)
(0.121671 -2.39409e-06 -7.19398e-06)
(0.121672 -1.04322e-06 -3.25712e-06)
(0.12167 2.29027e-07 4.81881e-07)
(0.121664 1.51026e-06 4.51798e-06)
(0.121658 -4.56751e-06 -1.73146e-05)
(0.121667 -3.16919e-06 -1.15582e-05)
(0.121672 -1.96076e-06 -7.04798e-06)
(0.121674 -8.78353e-07 -3.1923e-06)
(0.121671 1.42072e-07 4.72049e-07)
(0.121665 1.16141e-06 4.42971e-06)
(1.0491 1.33136e-06 -4.9041e-06)
(1.04911 2.35152e-06 -6.82955e-06)
(1.04911 3.89943e-06 -7.69209e-06)
(1.04911 6.7667e-06 -2.18379e-06)
(1.04908 1.53609e-05 2.50632e-05)
(1.04898 3.552e-05 9.82289e-05)
(1.04894 5.27456e-05 0.000193103)
(1.0491 1.36611e-06 -4.89039e-06)
(1.04911 2.36277e-06 -6.85247e-06)
(1.04911 3.73225e-06 -7.89688e-06)
(1.04912 5.91096e-06 -3.22888e-06)
(1.04909 1.23786e-05 2.07741e-05)
(1.049 2.87937e-05 8.59e-05)
(1.04895 4.36753e-05 0.000173541)
(1.0491 1.1705e-06 -4.90047e-06)
(1.04911 1.99424e-06 -6.90329e-06)
(1.04912 3.06323e-06 -8.12936e-06)
(1.04912 4.53375e-06 -4.06381e-06)
(1.04909 7.45633e-06 1.82189e-05)
(1.04901 1.3737e-05 7.98618e-05)
(1.04895 1.98817e-05 0.000164597)
(1.0491 9.58345e-07 -4.91258e-06)
(1.04911 1.64737e-06 -6.93695e-06)
(1.04912 2.49681e-06 -8.26741e-06)
(1.04912 3.61571e-06 -4.4861e-06)
(1.04909 5.39248e-06 1.71179e-05)
(1.04901 8.51548e-06 7.75012e-05)
(1.04896 1.16179e-05 0.000161194)
(1.0491 7.78179e-07 -4.91502e-06)
(1.04911 1.3663e-06 -6.94684e-06)
(1.04912 2.06746e-06 -8.32583e-06)
(1.04912 2.95821e-06 -4.67444e-06)
(1.0491 4.22251e-06 1.6668e-05)
(1.04901 6.1132e-06 7.6599e-05)
(1.04896 7.95067e-06 0.000159913)
(1.0491 6.15514e-07 -4.91293e-06)
(1.04911 1.10257e-06 -6.94713e-06)
(1.04912 1.67476e-06 -8.35587e-06)
(1.04912 2.36117e-06 -4.75998e-06)
(1.0491 3.25213e-06 1.64828e-05)
(1.04901 4.43097e-06 7.62571e-05)
(1.04896 5.54874e-06 0.000159443)
(1.04911 4.65038e-07 -4.90919e-06)
(1.04911 8.45844e-07 -6.94104e-06)
(1.04912 1.29075e-06 -8.37263e-06)
(1.04912 1.80003e-06 -4.80019e-06)
(1.0491 2.41941e-06 1.64055e-05)
(1.04901 3.17042e-06 7.61275e-05)
(1.04896 3.86128e-06 0.000159274)
(0.408279 3.28673e-06 -3.72887e-06)
(0.408269 5.64812e-06 -2.72483e-06)
(0.408252 9.32035e-06 3.75637e-06)
(0.408221 1.57452e-05 2.79108e-05)
(0.408152 2.9841e-05 9.97749e-05)
(0.408075 5.42189e-05 0.000254984)
(0.408087 7.13366e-05 0.000429699)
(0.408281 3.74737e-06 -3.8579e-06)
(0.408271 6.29971e-06 -3.10956e-06)
(0.408255 9.97157e-06 2.68639e-06)
(0.408228 1.57228e-05 2.46901e-05)
(0.408167 2.76147e-05 8.94439e-05)
(0.40809 4.86898e-05 0.000228926)
(0.408093 6.4411e-05 0.00039036)
(0.408283 3.62299e-06 -4.05037e-06)
(0.408273 5.94386e-06 -3.56245e-06)
(0.408258 9.07921e-06 1.59254e-06)
(0.408233 1.35213e-05 2.19829e-05)
(0.408175 2.07768e-05 8.27326e-05)
(0.408099 3.18147e-05 0.000214945)
(0.408098 4.06074e-05 0.00037059)
(0.408285 3.24857e-06 -4.21992e-06)
(0.408275 5.24615e-06 -3.91404e-06)
(0.408261 7.80068e-06 8.36806e-07)
(0.408237 1.12031e-05 2.03552e-05)
(0.408181 1.60374e-05 7.92934e-05)
(0.408104 2.24662e-05 0.000208572)
(0.408102 2.76371e-05 0.00036194)
(0.408286 2.7865e-06 -4.34314e-06)
(0.408277 4.4563e-06 -4.15454e-06)
(0.408264 6.49153e-06 3.62326e-07)
(0.40824 9.0629e-06 1.94237e-05)
(0.408185 1.24129e-05 7.75257e-05)
(0.408108 1.64672e-05 0.000205563)
(0.408105 1.9706e-05 0.00035797)
(0.408288 2.27615e-06 -4.42964e-06)
(0.408279 3.61768e-06 -4.31685e-06)
(0.408266 5.18182e-06 5.97698e-08)
(0.408243 7.06978e-06 1.88849e-05)
(0.408188 9.35582e-06 7.66013e-05)
(0.408111 1.19272e-05 0.000204118)
(0.408107 1.39622e-05 0.000356128)
(0.408289 1.75342e-06 -4.48864e-06)
(0.40828 2.77743e-06 -4.42303e-06)
(0.408267 3.9279e-06 -1.33972e-07)
(0.408244 5.26715e-06 1.85675e-05)
(0.408189 6.80199e-06 7.61031e-05)
(0.408113 8.43566e-06 0.000203399)
(0.408108 9.70935e-06 0.000355248)
(0.121643 3.75355e-06 1.15173e-05)
(0.121623 6.20957e-06 2.13019e-05)
(0.121594 9.85338e-06 3.94107e-05)
(0.121553 1.5664e-05 7.55953e-05)
(0.121493 2.6016e-05 0.000150806)
(0.121454 4.01279e-05 0.000286669)
(0.121493 4.74543e-05 0.000425731)
(0.121645 4.4039e-06 1.11288e-05)
(0.121625 7.16174e-06 2.04741e-05)
(0.121597 1.10129e-05 3.77243e-05)
(0.121558 1.66677e-05 7.20017e-05)
(0.121502 2.6183e-05 0.000141786)
(0.121461 3.93729e-05 0.000266527)
(0.121495 4.69196e-05 0.000396476)
(0.121647 4.38792e-06 1.06591e-05)
(0.121628 7.00111e-06 1.95443e-05)
(0.121601 1.04693e-05 3.59428e-05)
(0.121564 1.51847e-05 6.85659e-05)
(0.12151 2.19563e-05 0.000134825)
(0.121468 3.05642e-05 0.000253574)
(0.121499 3.646e-05 0.00037868)
(0.121649 4.0258e-06 1.02452e-05)
(0.121631 6.32561e-06 1.87714e-05)
(0.121605 9.23271e-06 3.45562e-05)
(0.121568 1.29733e-05 6.6089e-05)
(0.121515 1.78396e-05 0.000130382)
(0.121473 2.35484e-05 0.000246211)
(0.121502 2.77085e-05 0.000369048)
(0.121651 3.5035e-06 9.91439e-06)
(0.121633 5.44233e-06 1.81794e-05)
(0.121607 7.78617e-06 3.35515e-05)
(0.121572 1.06574e-05 6.4411e-05)
(0.121519 1.41489e-05 0.000127602)
(0.121477 1.80003e-05 0.000241936)
(0.121505 2.08484e-05 0.000363627)
(0.121653 2.88876e-06 9.66362e-06)
(0.121635 4.44978e-06 1.77457e-05)
(0.12161 6.26428e-06 3.28525e-05)
(0.121574 8.39165e-06 6.33093e-05)
(0.121522 1.08378e-05 0.000125903)
(0.12148 1.34063e-05 0.00023949)
(0.121507 1.531e-05 0.000360614)
(0.121654 2.23908e-06 9.48143e-06)
(0.121636 3.42915e-06 1.74374e-05)
(0.121611 4.76914e-06 3.23779e-05)
(0.121576 6.286e-06 6.25961e-05)
(0.121524 7.9567e-06 0.000124866)
(0.121482 9.64493e-06 0.000238079)
(0.121509 1.0889e-05 0.000358926)
(1.04892 -5.86412e-06 -0.000127093)
(1.04898 -5.4172e-06 -9.63505e-05)
(1.04905 -4.72549e-06 -3.97619e-05)
(1.0491 -3.99403e-06 -7.47629e-06)
(1.0491 -3.29951e-06 2.37402e-06)
(1.0491 -2.66672e-06 4.19984e-06)
(1.0491 -2.09895e-06 3.61522e-06)
(1.04892 -3.37293e-06 -0.00012702)
(1.04898 -3.12761e-06 -9.62737e-05)
(1.04905 -2.74791e-06 -3.96924e-05)
(1.0491 -2.34129e-06 -7.41871e-06)
(1.0491 -1.94879e-06 2.42116e-06)
(1.0491 -1.58607e-06 4.23852e-06)
(1.0491 -1.25626e-06 3.64147e-06)
(1.04892 -1.10074e-06 -0.000126991)
(1.04898 -1.02224e-06 -9.62422e-05)
(1.04905 -9.01017e-07 -3.96627e-05)
(1.0491 -7.7052e-07 -7.39307e-06)
(1.0491 -6.43585e-07 2.44289e-06)
(1.0491 -5.2549e-07 4.25682e-06)
(1.0491 -4.17428e-07 3.65402e-06)
(1.04892 1.10311e-06 -0.000126991)
(1.04898 1.02529e-06 -9.62422e-05)
(1.04905 9.04191e-07 -3.96627e-05)
(1.0491 7.73561e-07 -7.39308e-06)
(1.0491 6.46436e-07 2.44287e-06)
(1.0491 5.28129e-07 4.25681e-06)
(1.0491 4.19852e-07 3.65401e-06)
(1.04892 3.37538e-06 -0.00012702)
(1.04898 3.13075e-06 -9.62738e-05)
(1.04905 2.75117e-06 -3.96925e-05)
(1.0491 2.34441e-06 -7.41877e-06)
(1.0491 1.95169e-06 2.42111e-06)
(1.0491 1.58875e-06 4.23848e-06)
(1.0491 1.25871e-06 3.64144e-06)
(1.04892 5.86669e-06 -0.000127093)
(1.04898 5.42054e-06 -9.63506e-05)
(1.04905 4.72896e-06 -3.9762e-05)
(1.0491 3.99732e-06 -7.47638e-06)
(1.0491 3.30254e-06 2.37394e-06)
(1.0491 2.66948e-06 4.19978e-06)
(1.0491 2.10144e-06 3.61518e-06)
(0.408013 -1.24754e-05 -0.000258401)
(0.408057 -1.14568e-05 -0.000196228)
(0.408131 -9.92838e-06 -9.23665e-05)
(0.408197 -8.30249e-06 -3.55112e-05)
(0.408233 -6.75349e-06 -1.48154e-05)
(0.408255 -5.35467e-06 -6.73661e-06)
(0.408271 -4.13751e-06 -3.6719e-06)
(0.408014 -7.14323e-06 -0.000257936)
(0.408058 -6.58911e-06 -0.000195794)
(0.408132 -5.75619e-06 -9.20031e-05)
(0.408198 -4.85819e-06 -3.52246e-05)
(0.408234 -3.98741e-06 -1.45952e-05)
(0.408256 -3.18783e-06 -6.57042e-06)
(0.408272 -2.48174e-06 -3.55224e-06)
(0.408015 -2.32547e-06 -0.000257734)
(0.408059 -2.14933e-06 -0.000195603)
(0.408132 -1.88467e-06 -9.18401e-05)
(0.408199 -1.59756e-06 -3.50933e-05)
(0.408235 -1.31678e-06 -1.44923e-05)
(0.408256 -1.05684e-06 -6.49142e-06)
(0.408272 -8.25593e-07 -3.49464e-06)
(0.408015 2.32979e-06 -0.000257735)
(0.408059 2.15449e-06 -0.000195603)
(0.408132 1.88983e-06 -9.18402e-05)
(0.408199 1.60243e-06 -3.50934e-05)
(0.408235 1.32127e-06 -1.44923e-05)
(0.408256 1.06093e-06 -6.49146e-06)
(0.408272 8.29301e-07 -3.49467e-06)
(0.408014 7.14763e-06 -0.000257936)
(0.408058 6.59439e-06 -0.000195794)
(0.408132 5.76146e-06 -9.20032e-05)
(0.408198 4.86315e-06 -3.52248e-05)
(0.408234 3.99197e-06 -1.45954e-05)
(0.408256 3.19196e-06 -6.57053e-06)
(0.408272 2.48547e-06 -3.55233e-06)
(0.408013 1.248e-05 -0.000258401)
(0.408057 1.14624e-05 -0.000196228)
(0.408131 9.93392e-06 -9.23668e-05)
(0.408197 8.30767e-06 -3.55115e-05)
(0.408233 6.75821e-06 -1.48157e-05)
(0.408255 5.35891e-06 -6.7368e-06)
(0.408271 4.14129e-06 -3.67205e-06)
(0.12149 -1.35651e-05 -0.000274543)
(0.121487 -1.24287e-05 -0.000227278)
(0.121519 -1.07773e-05 -0.000145367)
(0.121565 -9.02193e-06 -8.92322e-05)
(0.121599 -7.33924e-06 -5.68438e-05)
(0.121626 -5.81234e-06 -3.70872e-05)
(0.121645 -4.47351e-06 -2.49426e-05)
(0.121491 -7.82015e-06 -0.000273546)
(0.121489 -7.19482e-06 -0.000226375)
(0.12152 -6.28415e-06 -0.000144615)
(0.121566 -5.30483e-06 -8.86373e-05)
(0.121601 -4.35132e-06 -5.63885e-05)
(0.121627 -3.47279e-06 -3.67482e-05)
(0.121646 -2.69154e-06 -2.46946e-05)
(0.121491 -2.5537e-06 -0.000273098)
(0.121489 -2.35398e-06 -0.000225965)
(0.121521 -2.06306e-06 -0.00014427)
(0.121567 -1.74848e-06 -8.83602e-05)
(0.121601 -1.43987e-06 -5.61734e-05)
(0.121627 -1.15339e-06 -3.6586e-05)
(0.121647 -8.96832e-07 -2.45745e-05)
(0.121491 2.55844e-06 -0.000273098)
(0.121489 2.35941e-06 -0.000225965)
(0.121521 2.0684e-06 -0.00014427)
(0.121567 1.75347e-06 -8.83603e-05)
(0.121601 1.44443e-06 -5.61735e-05)
(0.121627 1.15749e-06 -3.65861e-05)
(0.121647 9.00507e-07 -2.45746e-05)
(0.121491 7.82496e-06 -0.000273546)
(0.121489 7.20035e-06 -0.000226375)
(0.12152 6.28959e-06 -0.000144615)
(0.121566 5.3099e-06 -8.86376e-05)
(0.121601 4.35593e-06 -5.63888e-05)
(0.121627 3.47693e-06 -3.67484e-05)
(0.121646 2.69522e-06 -2.46948e-05)
(0.12149 1.35701e-05 -0.000274543)
(0.121487 1.24345e-05 -0.000227279)
(0.121519 1.07829e-05 -0.000145368)
(0.121565 9.02718e-06 -8.92327e-05)
(0.121599 7.34399e-06 -5.68442e-05)
(0.121626 5.81656e-06 -3.70876e-05)
(0.121645 4.47724e-06 -2.49429e-05)
(1.0491 -1.61236e-06 2.36062e-06)
(1.0491 -1.18758e-06 1.14299e-06)
(1.0491 -8.21198e-07 1.08041e-07)
(1.0491 -5.00635e-07 -8.48095e-07)
(1.0491 -2.11732e-07 -1.89021e-06)
(1.0491 5.88728e-08 -3.20843e-06)
(1.0491 -9.71177e-07 2.38273e-06)
(1.0491 -7.19312e-07 1.15766e-06)
(1.0491 -5.00191e-07 1.17488e-07)
(1.0491 -3.07209e-07 -8.42016e-07)
(1.0491 -1.32532e-07 -1.88639e-06)
(1.0491 3.14002e-08 -3.20565e-06)
(1.0491 -3.23579e-07 2.39359e-06)
(1.0491 -2.40191e-07 1.1649e-06)
(1.0491 -1.6734e-07 1.22174e-07)
(1.0491 -1.02967e-07 -8.3898e-07)
(1.0491 -4.45639e-08 -1.88446e-06)
(1.0491 1.03098e-08 -3.20426e-06)
(1.0491 3.25804e-07 2.39358e-06)
(1.0491 2.4223e-07 1.16489e-06)
(1.0491 1.69227e-07 1.22164e-07)
(1.0491 1.04732e-07 -8.38989e-07)
(1.0491 4.62404e-08 -1.88447e-06)
(1.0491 -8.69428e-09 -3.20427e-06)
(1.0491 9.73413e-07 2.3827e-06)
(1.0491 7.21354e-07 1.15763e-06)
(1.0491 5.02074e-07 1.17462e-07)
(1.0491 3.08966e-07 -8.42039e-07)
(1.0491 1.34196e-07 -1.8864e-06)
(1.0491 -2.97987e-08 -3.20566e-06)
(1.0491 1.61462e-06 2.36058e-06)
(1.0491 1.18963e-06 1.14295e-06)
(1.0491 8.23069e-07 1.08003e-07)
(1.0491 5.02372e-07 -8.48127e-07)
(1.0491 2.13373e-07 -1.89023e-06)
(1.0491 -5.72995e-08 -3.20844e-06)
(0.408282 -3.08562e-06 -2.74793e-06)
(0.408289 -2.18826e-06 -2.5074e-06)
(0.408294 -1.40846e-06 -2.49156e-06)
(0.408296 -7.1156e-07 -2.65346e-06)
(0.408296 -6.17954e-08 -3.04744e-06)
(0.408294 5.76657e-07 -3.73287e-06)
(0.408283 -1.86262e-06 -2.66081e-06)
(0.40829 -1.32864e-06 -2.4484e-06)
(0.408294 -8.60317e-07 -2.45431e-06)
(0.408296 -4.39266e-07 -2.63346e-06)
(0.408297 -4.59299e-08 -3.04223e-06)
(0.408295 3.39522e-07 -3.74156e-06)
(0.408283 -6.21425e-07 -2.61831e-06)
(0.40829 -4.44362e-07 -2.41936e-06)
(0.408295 -2.88352e-07 -2.43582e-06)
(0.408297 -1.47659e-07 -2.62341e-06)
(0.408297 -1.60871e-08 -3.03946e-06)
(0.408295 1.12698e-07 -3.7456e-06)
(0.408283 6.24773e-07 -2.61834e-06)
(0.40829 4.47394e-07 -2.41939e-06)
(0.408295 2.91122e-07 -2.43585e-06)
(0.408297 1.50216e-07 -2.62343e-06)
(0.408297 1.84784e-08 -3.03948e-06)
(0.408295 -1.10418e-07 -3.74561e-06)
(0.408283 1.86598e-06 -2.6609e-06)
(0.40829 1.33167e-06 -2.44848e-06)
(0.408294 8.63075e-07 -2.45438e-06)
(0.408296 4.41804e-07 -2.63352e-06)
(0.408297 4.83042e-08 -3.04227e-06)
(0.408295 -3.37257e-07 -3.74159e-06)
(0.408282 3.08899e-06 -2.74806e-06)
(0.408289 2.19128e-06 -2.50752e-06)
(0.408294 1.4112e-06 -2.49167e-06)
(0.408296 7.14069e-07 -2.65356e-06)
(0.408296 6.41423e-08 -3.0475e-06)
(0.408294 -5.74412e-07 -3.7329e-06)
(0.121659 -3.31687e-06 -1.70442e-05)
(0.121668 -2.32068e-06 -1.13779e-05)
(0.121673 -1.44896e-06 -6.93867e-06)
(0.121675 -6.62258e-07 -3.14203e-06)
(0.121672 8.01415e-08 4.67812e-07)
(0.121666 8.17514e-07 4.36925e-06)
(0.12166 -2.00771e-06 -1.68702e-05)
(0.121669 -1.4124e-06 -1.12601e-05)
(0.121674 -8.87129e-07 -6.86623e-06)
(0.121675 -4.10681e-07 -3.10787e-06)
(0.121673 3.92815e-08 4.66467e-07)
(0.121667 4.84582e-07 4.33174e-06)
(0.121661 -6.70827e-07 -1.67851e-05)
(0.121669 -4.73023e-07 -1.12021e-05)
(0.121674 -2.97755e-07 -6.83022e-06)
(0.121675 -1.38372e-07 -3.09065e-06)
(0.121673 1.22203e-08 4.66213e-07)
(0.121667 1.61009e-07 4.31381e-06)
(0.121661 6.741e-07 -1.67852e-05)
(0.121669 4.75938e-07 -1.12021e-05)
(0.121674 3.00371e-07 -6.83026e-06)
(0.121675 1.40731e-07 -3.0907e-06)
(0.121673 -1.00678e-08 4.66175e-07)
(0.121667 -1.59e-07 4.31378e-06)
(0.12166 2.01099e-06 -1.68703e-05)
(0.121669 1.41532e-06 -1.12603e-05)
(0.121674 8.89733e-07 -6.86636e-06)
(0.121675 4.13024e-07 -3.108e-06)
(0.121673 -3.71389e-08 4.66362e-07)
(0.121667 -4.82576e-07 4.33165e-06)
(0.121659 3.32016e-06 -1.70445e-05)
(0.121668 2.32358e-06 -1.13782e-05)
(0.121673 1.45154e-06 -6.93888e-06)
(0.121675 6.64577e-07 -3.14222e-06)
(0.121672 -7.80127e-08 4.67647e-07)
(0.121666 -8.15512e-07 4.36911e-06)
(1.04911 3.2502e-07 -4.90543e-06)
(1.04911 5.98413e-07 -6.93327e-06)
(1.04912 9.15002e-07 -8.38215e-06)
(1.04912 1.26667e-06 -4.82021e-06)
(1.0491 1.67665e-06 1.63714e-05)
(1.04901 2.14642e-06 7.60761e-05)
(1.04896 2.56688e-06 0.000159213)
(1.04911 1.92499e-07 -4.90288e-06)
(1.04911 3.57521e-07 -6.92838e-06)
(1.04912 5.46225e-07 -8.38786e-06)
(1.04912 7.5234e-07 -4.83058e-06)
(1.0491 9.86539e-07 1.63556e-05)
(1.04901 1.24602e-06 7.60546e-05)
(1.04896 1.47392e-06 0.000159189)
(1.04911 6.42259e-08 -4.90165e-06)
(1.04911 1.19395e-07 -6.9262e-06)
(1.04912 1.82024e-07 -8.39064e-06)
(1.04912 2.49894e-07 -4.83517e-06)
(1.0491 3.26074e-07 1.63491e-05)
(1.04901 4.09175e-07 7.60464e-05)
(1.04896 4.81467e-07 0.000159182)
(1.04911 -6.26566e-08 -4.90165e-06)
(1.04911 -1.17861e-07 -6.9262e-06)
(1.04912 -1.80518e-07 -8.39064e-06)
(1.04912 -2.48402e-07 -4.83517e-06)
(1.0491 -3.24568e-07 1.6349e-05)
(1.04901 -4.0758e-07 7.60464e-05)
(1.04896 -4.79834e-07 0.000159181)
(1.04911 -1.90944e-07 -4.90288e-06)
(1.04911 -3.55998e-07 -6.92838e-06)
(1.04912 -5.44722e-07 -8.38785e-06)
(1.04912 -7.50843e-07 -4.83059e-06)
(1.0491 -9.85019e-07 1.63556e-05)
(1.04901 -1.24441e-06 7.60545e-05)
(1.04896 -1.47229e-06 0.000159189)
(1.04911 -3.23493e-07 -4.90543e-06)
(1.04911 -5.9691e-07 -6.93327e-06)
(1.04912 -9.13507e-07 -8.38214e-06)
(1.04912 -1.26517e-06 -4.82021e-06)
(1.0491 -1.6751e-06 1.63714e-05)
(1.04901 -2.14478e-06 7.6076e-05)
(1.04896 -2.56525e-06 0.000159213)
(0.408289 1.23806e-06 -4.52735e-06)
(0.408281 1.95714e-06 -4.49039e-06)
(0.408268 2.74445e-06 -2.5628e-07)
(0.408245 3.63624e-06 1.83787e-05)
(0.408191 4.62042e-06 7.58259e-05)
(0.408114 5.629e-06 0.000203024)
(0.408109 6.404e-06 0.000354807)
(0.40829 7.35879e-07 -4.55098e-06)
(0.408282 1.16155e-06 -4.53118e-06)
(0.408269 1.62079e-06 -3.28865e-07)
(0.408246 2.13121e-06 1.82711e-05)
(0.408191 2.68117e-06 7.56751e-05)
(0.408115 3.23165e-06 0.000202829)
(0.40811 3.65028e-06 0.000354585)
(0.40829 2.44653e-07 -4.56223e-06)
(0.408282 3.85516e-07 -4.55058e-06)
(0.408269 5.36436e-07 -3.62821e-07)
(0.408246 7.02594e-07 1.8222e-05)
(0.408192 8.79563e-07 7.56081e-05)
(0.408115 1.05475e-06 0.000202745)
(0.40811 1.18727e-06 0.000354491)
(0.40829 -2.42448e-07 -4.56223e-06)
(0.408282 -3.83348e-07 -4.55058e-06)
(0.408269 -5.34266e-07 -3.62834e-07)
(0.408246 -7.00388e-07 1.8222e-05)
(0.408192 -8.77248e-07 7.5608e-05)
(0.408115 -1.05215e-06 0.000202745)
(0.40811 -1.18448e-06 0.000354491)
(0.40829 -7.3368e-07 -4.55099e-06)
(0.408282 -1.15938e-06 -4.5312e-06)
(0.408269 -1.61859e-06 -3.289e-07)
(0.408246 -2.12896e-06 1.8271e-05)
(0.408191 -2.6788e-06 7.5675e-05)
(0.408115 -3.229e-06 0.000202829)
(0.40811 -3.64748e-06 0.000354585)
(0.408289 -1.23587e-06 -4.52737e-06)
(0.408281 -1.95494e-06 -4.49042e-06)
(0.408268 -2.74221e-06 -2.5634e-07)
(0.408245 -3.6339e-06 1.83785e-05)
(0.408191 -4.61792e-06 7.58257e-05)
(0.408114 -5.62624e-06 0.000203024)
(0.408109 -6.40116e-06 0.000354807)
(0.121655 1.58726e-06 9.35586e-06)
(0.121637 2.42175e-06 1.7228e-05)
(0.121612 3.33969e-06 3.20664e-05)
(0.121577 4.35204e-06 6.21443e-05)
(0.121526 5.4335e-06 0.000124237)
(0.121483 6.49664e-06 0.000237258)
(0.121509 7.2738e-06 0.000357967)
(0.121655 9.45617e-07 9.27751e-06)
(0.121638 1.43938e-06 1.70988e-05)
(0.121613 1.97443e-06 3.1878e-05)
(0.121578 2.55433e-06 6.18777e-05)
(0.121526 3.1617e-06 0.000123876)
(0.121484 3.74835e-06 0.000236801)
(0.12151 4.17439e-06 0.000357444)
(0.121656 3.14445e-07 9.23992e-06)
(0.121638 4.77804e-07 1.70373e-05)
(0.121613 6.53532e-07 3.17893e-05)
(0.121579 8.42352e-07 6.17539e-05)
(0.121527 1.03824e-06 0.000123712)
(0.121484 1.22589e-06 0.000236596)
(0.12151 1.36168e-06 0.000357212)
(0.121656 -3.12538e-07 9.23989e-06)
(0.121638 -4.75948e-07 1.70373e-05)
(0.121613 -6.51681e-07 3.17892e-05)
(0.121579 -8.40465e-07 6.17538e-05)
(0.121527 -1.03621e-06 0.000123712)
(0.121484 -1.22349e-06 0.000236596)
(0.12151 -1.35902e-06 0.000357212)
(0.121655 -9.43703e-07 9.27742e-06)
(0.121638 -1.43751e-06 1.70987e-05)
(0.121613 -1.97254e-06 3.18779e-05)
(0.121578 -2.55239e-06 6.18775e-05)
(0.121526 -3.15961e-06 0.000123876)
(0.121484 -3.74591e-06 0.0002368)
(0.12151 -4.17172e-06 0.000357444)
(0.121655 -1.58533e-06 9.3557e-06)
(0.121637 -2.41983e-06 1.72278e-05)
(0.121612 -3.33772e-06 3.20661e-05)
(0.121577 -4.34999e-06 6.21439e-05)
(0.121526 -5.43128e-06 0.000124236)
(0.121483 -6.49409e-06 0.000237257)
(0.121509 -7.2711e-06 0.000357967)
(1.04892 8.78759e-06 -0.000127258)
(1.04898 8.06597e-06 -9.65135e-05)
(1.04905 6.94908e-06 -3.98995e-05)
(1.04909 5.7946e-06 -7.58258e-06)
(1.0491 4.72922e-06 2.29214e-06)
(1.0491 3.7806e-06 4.13562e-06)
(1.0491 2.94872e-06 3.57177e-06)
(1.04892 1.25054e-05 -0.000127649)
(1.04898 1.13643e-05 -9.68741e-05)
(1.04905 9.58721e-06 -4.01772e-05)
(1.04909 7.81823e-06 -7.77613e-06)
(1.0491 6.26206e-06 2.15622e-06)
(1.0491 4.92478e-06 4.03565e-06)
(1.0491 3.78884e-06 3.50101e-06)
(1.04892 1.75808e-05 -0.000128637)
(1.04898 1.57836e-05 -9.77363e-05)
(1.04905 1.28965e-05 -4.07791e-05)
(1.04909 1.01656e-05 -8.14629e-06)
(1.0491 7.92133e-06 1.92653e-06)
(1.0491 6.08563e-06 3.88295e-06)
(1.04909 4.58741e-06 3.39649e-06)
(1.04891 2.5007e-05 -0.000131164)
(1.04897 2.19838e-05 -9.98608e-05)
(1.04904 1.71041e-05 -4.2136e-05)
(1.04909 1.2876e-05 -8.8839e-06)
(1.0491 9.69301e-06 1.52589e-06)
(1.04909 7.22012e-06 3.64861e-06)
(1.04909 5.29127e-06 3.25301e-06)
(1.04891 4.07434e-05 -0.000137685)
(1.04897 3.39757e-05 -0.000105088)
(1.04904 2.36893e-05 -4.51429e-05)
(1.04908 1.6251e-05 -1.03174e-05)
(1.04909 1.16243e-05 8.36953e-07)
(1.04909 8.31178e-06 3.29233e-06)
(1.04909 5.85248e-06 3.06235e-06)
(1.04889 8.25793e-05 -0.000155099)
(1.04895 6.49697e-05 -0.00011833)
(1.04902 3.75874e-05 -5.17739e-05)
(1.04907 2.10616e-05 -1.29198e-05)
(1.04909 1.34758e-05 -2.28808e-07)
(1.04909 9.05742e-06 2.80003e-06)
(1.04909 6.02555e-06 2.83726e-06)
(1.04886 9.56049e-05 -0.000194171)
(1.04891 7.60615e-05 -0.000147074)
(1.04899 4.33137e-05 -6.41941e-05)
(1.04906 2.2329e-05 -1.67833e-05)
(1.04908 1.2791e-05 -1.47438e-06)
(1.04908 7.93562e-06 2.28981e-06)
(1.04909 4.97893e-06 2.64099e-06)