/*--------------------------------*- C++ -*----------------------------------*\
  =========                 |
  \\      /  F ield         | OpenFOAM: The Open Source CFD Toolbox
   \\    /   O peration     | Website:  https://openfoam.org
    \\  /    A nd           | Version:  7
     \\/     M anipulation  |
\*---------------------------------------------------------------------------*/
FoamFile
{
    version     2.0;
    format      ascii;
    class       volScalarField;
    location    "1.25";
    object      p;
}
// * * * * * * * * * * * * * * * * * * * * * * * * * * * * * * * * * * * * * //

dimensions      [0 2 -2 0 0 0 0];

internalField   nonuniform List<scalar> 
7784
(
3.8169e-10
-0.000412633
-0.00135209
-0.00308163
-0.00439138
-0.00536656
-0.00620911
0.000859935
0.000249107
-0.00117431
-0.00302743
-0.00434798
-0.00533716
-0.00619161
0.00100551
0.000345328
-0.00112192
-0.00298815
-0.00431595
-0.00531437
-0.00617618
0.00109256
0.00041551
-0.00107463
-0.00295383
-0.00429018
-0.00529546
-0.00616261
0.00115912
0.000470927
-0.0010349
-0.00292496
-0.00426845
-0.00527915
-0.0061506
0.00120467
0.000509511
-0.0010051
-0.00290207
-0.00425074
-0.00526558
-0.00614039
0.00123608
0.000536707
-0.000983083
-0.00288454
-0.00423689
-0.00525479
-0.00613215
-0.00109309
-0.0015184
-0.00255988
-0.00379587
-0.00478639
-0.00561725
-0.00637137
-0.000744184
-0.00124339
-0.0024515
-0.00374732
-0.00475059
-0.00559321
-0.00635634
-0.000637034
-0.00116558
-0.00240177
-0.00370896
-0.00472056
-0.00557173
-0.00634152
-0.000557585
-0.00110127
-0.00235658
-0.00367526
-0.00469512
-0.00555305
-0.0063281
-0.000494229
-0.00104863
-0.00231786
-0.00364635
-0.00467323
-0.00553666
-0.00631606
-0.000448897
-0.00101029
-0.00228801
-0.00362316
-0.00465525
-0.00552293
-0.00630576
-0.000416954
-0.00098275
-0.00226571
-0.00360533
-0.00464116
-0.00551198
-0.00629743
-0.00291817
-0.00308969
-0.00367115
-0.00445884
-0.00520262
-0.00589531
-0.00655393
-0.00279004
-0.00296846
-0.0035978
-0.00441649
-0.00517272
-0.00587461
-0.00654016
-0.00270877
-0.00290277
-0.00355188
-0.0043825
-0.00514682
-0.00585572
-0.00652683
-0.0026448
-0.00285004
-0.00351246
-0.00435259
-0.00512403
-0.00583876
-0.00651449
-0.00259339
-0.00280665
-0.00347861
-0.00432648
-0.00510397
-0.00582359
-0.00650324
-0.00255443
-0.00277328
-0.00345166
-0.00430509
-0.00508722
-0.0058107
-0.00649353
-0.00252581
-0.00274843
-0.00343107
-0.00428841
-0.00507394
-0.00580033
-0.00648561
-0.00697006
-0.00767687
-0.00835472
-0.00902474
-0.00970619
-0.0104199
-0.00695932
-0.00767035
-0.00835124
-0.00902369
-0.00970749
-0.0104238
-0.00694897
-0.00766369
-0.00834739
-0.00902217
-0.0097081
-0.0104266
-0.00693947
-0.00765731
-0.0083435
-0.00902035
-0.00970814
-0.0104284
-0.00693083
-0.00765136
-0.00833973
-0.00901843
-0.00970786
-0.0104297
-0.00692335
-0.0076461
-0.00833632
-0.00901659
-0.00970741
-0.0104306
-0.00691722
-0.00764172
-0.00833342
-0.00901496
-0.00970693
-0.0104311
-0.00707022
-0.00773128
-0.00837169
-0.00900673
-0.00965099
-0.0103199
-0.00706071
-0.00772541
-0.0083685
-0.00900568
-0.00965204
-0.0103232
-0.00705068
-0.00771893
-0.00836475
-0.0090042
-0.00965266
-0.0103259
-0.00704127
-0.00771261
-0.00836091
-0.00900244
-0.00965276
-0.0103279
-0.00703263
-0.00770668
-0.00835718
-0.00900057
-0.00965256
-0.0103293
-0.00702512
-0.00770142
-0.00835378
-0.00899878
-0.00965221
-0.0103303
-0.00701894
-0.00769703
-0.0083509
-0.00899721
-0.00965181
-0.010331
-0.0071833
-0.00779074
-0.00838541
-0.00897666
-0.00957355
-0.0101855
-0.00717428
-0.00778508
-0.00838228
-0.00897559
-0.00957456
-0.0101886
-0.0071651
-0.00777907
-0.00837877
-0.00897419
-0.00957513
-0.0101912
-0.00715637
-0.00777318
-0.00837518
-0.00897255
-0.00957526
-0.010193
-0.00714826
-0.00776759
-0.00837167
-0.00897082
-0.00957514
-0.0101945
-0.00714114
-0.0077626
-0.00836846
-0.00896915
-0.00957488
-0.0101956
-0.00713525
-0.00775842
-0.00836573
-0.00896768
-0.00957455
-0.0101963
-0.0111903
-0.0120464
-0.0130233
-0.0142103
-0.0157173
-0.016854
-0.0166713
-0.0111977
-0.0120594
-0.0130433
-0.0142344
-0.015811
-0.0172414
-0.0171942
-0.0112029
-0.0120677
-0.0130555
-0.0142499
-0.0158314
-0.0172816
-0.0172607
-0.0112066
-0.0120734
-0.0130636
-0.0142608
-0.0158468
-0.0173095
-0.0173009
-0.0112094
-0.0120779
-0.0130701
-0.0142699
-0.0158606
-0.0173323
-0.0173317
-0.0112116
-0.0120815
-0.0130753
-0.0142772
-0.0158711
-0.0173478
-0.0173518
-0.0112132
-0.0120842
-0.0130794
-0.0142829
-0.0158789
-0.0173585
-0.0173652
-0.0110306
-0.0118014
-0.0126493
-0.0136243
-0.0148039
-0.015748
-0.0157599
-0.0110368
-0.011812
-0.0126654
-0.0136438
-0.0148599
-0.0159359
-0.0159985
-0.0110419
-0.01182
-0.0126767
-0.0136573
-0.0148762
-0.0159685
-0.0160503
-0.0110457
-0.0118259
-0.0126852
-0.0136687
-0.0148921
-0.0159957
-0.0160879
-0.0110488
-0.0118308
-0.0126923
-0.0136786
-0.0149068
-0.0160187
-0.0161182
-0.0110512
-0.0118347
-0.012698
-0.0136867
-0.0149182
-0.016035
-0.0161391
-0.011053
-0.0118378
-0.0127025
-0.0136929
-0.0149267
-0.0160465
-0.0161534
-0.010821
-0.0114863
-0.0121821
-0.0129146
-0.0136752
-0.0141882
-0.0141527
-0.0108267
-0.0114955
-0.0121953
-0.0129314
-0.0137096
-0.0142614
-0.0142175
-0.0108314
-0.0115027
-0.0122053
-0.0129438
-0.0137263
-0.0142899
-0.0142547
-0.0108351
-0.0115085
-0.0122134
-0.0129546
-0.0137412
-0.0143126
-0.0142845
-0.0108382
-0.0115133
-0.0122203
-0.0129642
-0.0137546
-0.0143317
-0.0143087
-0.0108406
-0.0115173
-0.0122261
-0.0129721
-0.0137654
-0.0143462
-0.0143267
-0.0108425
-0.0115204
-0.0122306
-0.0129783
-0.0137735
-0.0143569
-0.0143397
0.00125747
0.000555525
-0.000967459
-0.00287183
-0.0042267
-0.00524675
-0.00612594
0.00127087
0.000567418
-0.000957433
-0.00286356
-0.00422001
-0.00524142
-0.00612179
0.00127732
0.000573185
-0.000952531
-0.00285948
-0.00421669
-0.00523877
-0.00611971
0.00127733
0.000573187
-0.000952529
-0.00285948
-0.00421668
-0.00523877
-0.00611971
0.00127087
0.000567424
-0.000957428
-0.00286355
-0.00422
-0.00524142
-0.00612178
0.00125748
0.000555533
-0.000967452
-0.00287182
-0.0042267
-0.00524674
-0.00612593
-0.000395064
-0.000963601
-0.00224984
-0.00359239
-0.0046308
-0.00550383
-0.00629114
-0.000381348
-0.000951486
-0.00223964
-0.00358397
-0.00462398
-0.00549842
-0.00628694
-0.000374734
-0.000945612
-0.00223466
-0.00357983
-0.00462061
-0.00549572
-0.00628484
-0.000374732
-0.000945611
-0.00223466
-0.00357983
-0.00462061
-0.00549572
-0.00628484
-0.000381343
-0.000951482
-0.00223964
-0.00358397
-0.00462398
-0.00549841
-0.00628694
-0.000395058
-0.000963595
-0.00224983
-0.00359238
-0.00463079
-0.00550382
-0.00629114
-0.00250571
-0.00273078
-0.00341622
-0.00427618
-0.00506409
-0.00579255
-0.00647959
-0.00249294
-0.00271948
-0.00340659
-0.00426818
-0.00505759
-0.00578737
-0.00647556
-0.00248674
-0.00271396
-0.00340187
-0.00426423
-0.00505435
-0.00578478
-0.00647354
-0.00248674
-0.00271396
-0.00340187
-0.00426423
-0.00505435
-0.00578478
-0.00647354
-0.00249294
-0.00271948
-0.00340659
-0.00426818
-0.00505758
-0.00578736
-0.00647556
-0.00250571
-0.00273078
-0.00341622
-0.00427618
-0.00506409
-0.00579254
-0.00647958
-0.00691255
-0.00763835
-0.00833116
-0.00901367
-0.0097065
-0.0104315
-0.0069094
-0.00763606
-0.00832961
-0.00901276
-0.00970618
-0.0104318
-0.00690782
-0.00763491
-0.00832882
-0.0090123
-0.00970601
-0.0104319
-0.00690782
-0.00763491
-0.00832882
-0.0090123
-0.00970601
-0.0104319
-0.00690939
-0.00763606
-0.0083296
-0.00901276
-0.00970617
-0.0104317
-0.00691253
-0.00763834
-0.00833114
-0.00901365
-0.00970649
-0.0104315
-0.00701423
-0.00769365
-0.00834865
-0.00899594
-0.00965144
-0.0103315
-0.00701106
-0.00769135
-0.00834711
-0.00899506
-0.00965116
-0.0103318
-0.00700946
-0.00769019
-0.00834632
-0.00899461
-0.00965101
-0.0103319
-0.00700946
-0.00769019
-0.00834632
-0.00899461
-0.009651
-0.0103319
-0.00701105
-0.00769134
-0.0083471
-0.00899505
-0.00965115
-0.0103317
-0.00701422
-0.00769363
-0.00834864
-0.00899593
-0.00965142
-0.0103315
-0.00713074
-0.00775518
-0.00836358
-0.0089665
-0.00957425
-0.0101969
-0.0071277
-0.00775298
-0.00836211
-0.00896567
-0.00957401
-0.0101972
-0.00712616
-0.00775187
-0.00836136
-0.00896524
-0.00957388
-0.0101973
-0.00712616
-0.00775186
-0.00836136
-0.00896524
-0.00957388
-0.0101973
-0.00712769
-0.00775297
-0.0083621
-0.00896566
-0.009574
-0.0101972
-0.00713073
-0.00775516
-0.00836356
-0.00896648
-0.00957423
-0.0101968
-0.0112144
-0.0120863
-0.0130824
-0.014287
-0.0158845
-0.0173658
-0.0173742
-0.0112152
-0.0120876
-0.0130844
-0.0142898
-0.0158882
-0.0173705
-0.0173798
-0.0112155
-0.0120883
-0.0130854
-0.0142911
-0.0158899
-0.0173728
-0.0173825
-0.0112155
-0.0120883
-0.0130854
-0.0142911
-0.0158899
-0.0173728
-0.0173825
-0.0112152
-0.0120876
-0.0130844
-0.0142898
-0.0158881
-0.0173705
-0.0173798
-0.0112144
-0.0120863
-0.0130824
-0.014287
-0.0158845
-0.0173658
-0.0173742
-0.0110543
-0.01184
-0.0127058
-0.0136975
-0.0149327
-0.0160545
-0.0161631
-0.0110552
-0.0118415
-0.012708
-0.0137004
-0.0149366
-0.0160595
-0.0161691
-0.0110556
-0.0118422
-0.012709
-0.0137019
-0.0149386
-0.0160619
-0.016172
-0.0110556
-0.0118422
-0.012709
-0.0137019
-0.0149386
-0.0160619
-0.016172
-0.0110552
-0.0118415
-0.012708
-0.0137004
-0.0149366
-0.0160595
-0.0161691
-0.0110543
-0.01184
-0.0127058
-0.0136975
-0.0149327
-0.0160545
-0.0161631
-0.0108439
-0.0115227
-0.0122339
-0.0129828
-0.0137795
-0.0143644
-0.0143488
-0.0108448
-0.0115242
-0.0122361
-0.0129857
-0.0137833
-0.0143692
-0.0143545
-0.0108453
-0.0115249
-0.0122371
-0.0129872
-0.0137852
-0.0143716
-0.0143573
-0.0108453
-0.0115249
-0.0122371
-0.0129872
-0.0137852
-0.0143716
-0.0143573
-0.0108448
-0.0115242
-0.0122361
-0.0129857
-0.0137833
-0.0143692
-0.0143545
-0.0108439
-0.0115227
-0.0122339
-0.0129828
-0.0137794
-0.0143644
-0.0143488
0.00123609
0.000536716
-0.000983074
-0.00288453
-0.00423688
-0.00525478
-0.00613214
0.00120468
0.000509519
-0.00100509
-0.00290206
-0.00425073
-0.00526556
-0.00614038
0.00115912
0.000470935
-0.00103489
-0.00292495
-0.00426844
-0.00527913
-0.00615058
0.00109256
0.000415514
-0.00107462
-0.00295383
-0.00429017
-0.00529544
-0.00616259
0.0010055
0.000345325
-0.00112192
-0.00298815
-0.00431594
-0.00531435
-0.00617616
0.000859911
0.000249089
-0.00117432
-0.00302744
-0.00434798
-0.00533715
-0.00619159
-5.28538e-08
-0.000412673
-0.00135212
-0.00308164
-0.00439139
-0.00536656
-0.0062091
-0.000416947
-0.000982744
-0.00226571
-0.00360532
-0.00464116
-0.00551197
-0.00629742
-0.00044889
-0.00101029
-0.002288
-0.00362315
-0.00465524
-0.00552291
-0.00630575
-0.000494223
-0.00104863
-0.00231786
-0.00364634
-0.00467321
-0.00553664
-0.00631604
-0.000557584
-0.00110127
-0.00235657
-0.00367525
-0.00469511
-0.00555303
-0.00632808
-0.000637041
-0.00116559
-0.00240177
-0.00370896
-0.00472055
-0.00557172
-0.00634151
-0.000744203
-0.00124341
-0.00245151
-0.00374733
-0.00475059
-0.0055932
-0.00635632
-0.00109313
-0.00151843
-0.0025599
-0.00379588
-0.0047864
-0.00561725
-0.00637136
-0.0025258
-0.00274843
-0.00343107
-0.00428841
-0.00507394
-0.00580032
-0.00648559
-0.00255442
-0.00277328
-0.00345165
-0.00430509
-0.00508722
-0.00581069
-0.00649351
-0.00259339
-0.00280665
-0.00347861
-0.00432648
-0.00510396
-0.00582357
-0.00650323
-0.0026448
-0.00285004
-0.00351246
-0.00435259
-0.00512403
-0.00583875
-0.00651447
-0.00270878
-0.00290278
-0.00355189
-0.00438251
-0.00514682
-0.00585571
-0.00652681
-0.00279005
-0.00296848
-0.00359782
-0.00441649
-0.00517272
-0.0058746
-0.00654015
-0.0029182
-0.00308971
-0.00367118
-0.00445886
-0.00520263
-0.0058953
-0.00655391
-0.0069172
-0.00764171
-0.0083334
-0.00901495
-0.00970691
-0.0104311
-0.00692333
-0.00764608
-0.00833629
-0.00901657
-0.00970739
-0.0104305
-0.00693081
-0.00765133
-0.00833971
-0.00901841
-0.00970783
-0.0104297
-0.00693944
-0.00765728
-0.00834347
-0.00902033
-0.00970812
-0.0104284
-0.00694895
-0.00766366
-0.00834737
-0.00902215
-0.00970808
-0.0104266
-0.0069593
-0.00767033
-0.00835121
-0.00902366
-0.00970746
-0.0104238
-0.00697004
-0.00767685
-0.00835469
-0.00902471
-0.00970616
-0.0104199
-0.00701892
-0.00769701
-0.00835088
-0.00899719
-0.00965179
-0.010331
-0.0070251
-0.0077014
-0.00835376
-0.00899876
-0.00965219
-0.0103303
-0.00703261
-0.00770666
-0.00835715
-0.00900055
-0.00965254
-0.0103292
-0.00704125
-0.00771259
-0.00836088
-0.00900241
-0.00965273
-0.0103278
-0.00705066
-0.0077189
-0.00836472
-0.00900418
-0.00965263
-0.0103259
-0.00706069
-0.00772539
-0.00836847
-0.00900565
-0.00965201
-0.0103232
-0.0070702
-0.00773125
-0.00837167
-0.0090067
-0.00965096
-0.0103199
-0.00713523
-0.0077584
-0.0083657
-0.00896765
-0.00957453
-0.0101963
-0.00714112
-0.00776257
-0.00836843
-0.00896912
-0.00957485
-0.0101955
-0.00714824
-0.00776756
-0.00837164
-0.00897079
-0.00957512
-0.0101945
-0.00715635
-0.00777315
-0.00837515
-0.00897252
-0.00957523
-0.010193
-0.00716508
-0.00777904
-0.00837874
-0.00897416
-0.0095751
-0.0101911
-0.00717425
-0.00778505
-0.00838225
-0.00897556
-0.00957454
-0.0101886
-0.00718328
-0.00779072
-0.00838538
-0.00897664
-0.00957352
-0.0101854
-0.0112132
-0.0120842
-0.0130794
-0.0142829
-0.0158789
-0.0173584
-0.0173652
-0.0112115
-0.0120815
-0.0130753
-0.0142772
-0.0158711
-0.0173478
-0.0173518
-0.0112094
-0.0120779
-0.0130701
-0.0142699
-0.0158606
-0.0173323
-0.0173317
-0.0112066
-0.0120734
-0.0130636
-0.0142608
-0.0158468
-0.0173095
-0.0173009
-0.0112029
-0.0120677
-0.0130555
-0.0142498
-0.0158314
-0.0172816
-0.0172607
-0.0111977
-0.0120594
-0.0130433
-0.0142344
-0.015811
-0.0172414
-0.0171943
-0.0111903
-0.0120464
-0.0130233
-0.0142103
-0.0157173
-0.016854
-0.0166713
-0.011053
-0.0118378
-0.0127025
-0.0136929
-0.0149267
-0.0160465
-0.0161534
-0.0110511
-0.0118347
-0.012698
-0.0136867
-0.0149181
-0.016035
-0.0161391
-0.0110487
-0.0118308
-0.0126923
-0.0136786
-0.0149068
-0.0160187
-0.0161182
-0.0110457
-0.0118259
-0.0126852
-0.0136687
-0.0148921
-0.0159957
-0.0160879
-0.0110419
-0.0118199
-0.0126767
-0.0136573
-0.0148761
-0.0159685
-0.0160503
-0.0110368
-0.011812
-0.0126654
-0.0136438
-0.0148599
-0.0159359
-0.0159985
-0.0110306
-0.0118014
-0.0126493
-0.0136243
-0.0148039
-0.015748
-0.0157599
-0.0108425
-0.0115204
-0.0122306
-0.0129783
-0.0137735
-0.0143569
-0.0143397
-0.0108406
-0.0115173
-0.0122261
-0.0129721
-0.0137653
-0.0143462
-0.0143267
-0.0108382
-0.0115133
-0.0122203
-0.0129642
-0.0137546
-0.0143317
-0.0143087
-0.0108351
-0.0115084
-0.0122134
-0.0129546
-0.0137412
-0.0143126
-0.0142845
-0.0108314
-0.0115027
-0.0122053
-0.0129438
-0.0137263
-0.0142899
-0.0142547
-0.0108267
-0.0114955
-0.0121953
-0.0129314
-0.0137096
-0.0142614
-0.0142175
-0.010821
-0.0114863
-0.0121821
-0.0129146
-0.0136752
-0.0141882
-0.0141527
-0.00414018
-0.00415577
-0.00449838
-0.00504558
-0.00561981
-0.00619107
-0.0067564
-0.00406701
-0.00407631
-0.00444475
-0.00501266
-0.00559663
-0.0061746
-0.00674502
-0.00400326
-0.00402276
-0.00440617
-0.00498439
-0.00557528
-0.00615885
-0.00673371
-0.00395193
-0.00397988
-0.0043732
-0.00495906
-0.00555583
-0.00614421
-0.00672293
-0.00390987
-0.00394402
-0.00434458
-0.00493658
-0.00553835
-0.00613084
-0.00671292
-0.00387669
-0.00391543
-0.00432118
-0.00491779
-0.00552349
-0.0061193
-0.00670416
-0.00385157
-0.00389357
-0.00430295
-0.00490289
-0.00551154
-0.00610991
-0.00669694
-0.00496144
-0.00490562
-0.00516645
-0.00556766
-0.00601571
-0.00648523
-0.00696578
-0.00491468
-0.00485629
-0.00513025
-0.00554319
-0.00599794
-0.00647238
-0.00695669
-0.00486807
-0.00481704
-0.00510066
-0.00552084
-0.00598089
-0.00645963
-0.00694738
-0.00482792
-0.00478349
-0.0050743
-0.00550022
-0.00596486
-0.0064474
-0.00693826
-0.00479367
-0.00475444
-0.00505084
-0.00548152
-0.00595013
-0.006436
-0.00692963
-0.00476571
-0.00473054
-0.00503118
-0.00546556
-0.00593738
-0.00642601
-0.00692198
-0.004744
-0.00471183
-0.00501556
-0.0054527
-0.00592699
-0.00641777
-0.0069156
-0.00562728
-0.00556589
-0.00574019
-0.00603328
-0.00638227
-0.00676583
-0.00717069
-0.00559695
-0.00553308
-0.00571565
-0.00601523
-0.00636866
-0.00675578
-0.00716344
-0.00556586
-0.00550562
-0.00569381
-0.00599809
-0.00635531
-0.00674563
-0.0071559
-0.00553724
-0.0054808
-0.00567351
-0.00598179
-0.00634242
-0.00673564
-0.00714835
-0.00551167
-0.0054585
-0.00565496
-0.00596669
-0.00633034
-0.00672617
-0.0071411
-0.00549009
-0.0054396
-0.00563902
-0.00595355
-0.00631971
-0.00671775
-0.00713458
-0.00547288
-0.00542446
-0.00562612
-0.00594279
-0.00631093
-0.00671072
-0.0071291
-0.00617207
-0.0061064
-0.00622404
-0.00644103
-0.0067137
-0.00702558
-0.007364
-0.00615318
-0.00608392
-0.00620713
-0.006428
-0.00670348
-0.00701784
-0.0073583
-0.00613221
-0.00606462
-0.00619123
-0.00641509
-0.00669319
-0.00700987
-0.00735228
-0.00611186
-0.00604643
-0.00617589
-0.00640247
-0.00668303
-0.00700187
-0.00734615
-0.00609299
-0.00602956
-0.00616152
-0.00639054
-0.00667332
-0.00699415
-0.00734017
-0.00607657
-0.0060149
-0.00614892
-0.00637997
-0.00666466
-0.00698721
-0.00733474
-0.00606317
-0.0060029
-0.00613853
-0.00637119
-0.0066574
-0.00698135
-0.00733013
-0.00661966
-0.00655171
-0.00663079
-0.0067933
-0.00700707
-0.00725999
-0.0075412
-0.00660809
-0.00653598
-0.00661901
-0.00678393
-0.00699947
-0.00725408
-0.00753676
-0.00659373
-0.00652229
-0.00660748
-0.0067743
-0.00699161
-0.00724788
-0.007532
-0.00657922
-0.00650899
-0.00659602
-0.00676466
-0.0069837
-0.00724156
-0.00752709
-0.00656536
-0.00649635
-0.00658504
-0.00675538
-0.00697603
-0.00723538
-0.00752225
-0.00655299
-0.00648512
-0.00657522
-0.00674702
-0.00696909
-0.00722975
-0.0075178
-0.00654269
-0.00647577
-0.00656701
-0.00673999
-0.00696321
-0.00722495
-0.00751399
-0.00698724
-0.00691992
-0.00697198
-0.00709443
-0.00726252
-0.00746736
-0.00770003
-0.00697977
-0.0069086
-0.00696368
-0.00708768
-0.00725688
-0.00746287
-0.00769659
-0.00696966
-0.00689875
-0.0069553
-0.00708053
-0.00725092
-0.00745809
-0.00769287
-0.00695923
-0.00688901
-0.00694677
-0.00707323
-0.00724482
-0.00745314
-0.00768898
-0.00694907
-0.00687958
-0.00693845
-0.00706609
-0.00723884
-0.00744826
-0.0076851
-0.00693981
-0.00687105
-0.00693089
-0.00705957
-0.00723335
-0.00744376
-0.00768151
-0.00693197
-0.00686385
-0.00692449
-0.00705402
-0.00722866
-0.00743989
-0.00767841
-0.00731243
-0.00785941
-0.00840035
-0.00893946
-0.00948081
-0.0100285
-0.00730475
-0.00785448
-0.00839757
-0.00893845
-0.00948164
-0.0100312
-0.00729685
-0.00784923
-0.00839446
-0.00893716
-0.00948207
-0.0100333
-0.00728913
-0.00784398
-0.00839123
-0.00893567
-0.00948219
-0.010035
-0.00728186
-0.00783893
-0.00838805
-0.00893411
-0.00948211
-0.0100364
-0.00727539
-0.00783438
-0.00838513
-0.00893261
-0.00948191
-0.0100374
-0.00727001
-0.00783055
-0.00838262
-0.00893128
-0.00948165
-0.0100382
-0.00745
-0.00793426
-0.00841756
-0.00890028
-0.00938275
-0.00986518
-0.00744373
-0.00793015
-0.0084152
-0.00889937
-0.00938337
-0.00986733
-0.00743713
-0.00792571
-0.00841252
-0.00889822
-0.00938368
-0.0098691
-0.00743052
-0.00792116
-0.00840971
-0.00889691
-0.00938377
-0.00987057
-0.00742419
-0.00791674
-0.00840691
-0.00889554
-0.00938371
-0.0098718
-0.0074185
-0.00791272
-0.00840431
-0.0088942
-0.00938355
-0.00987277
-0.00741372
-0.0079093
-0.00840207
-0.00889302
-0.00938333
-0.0098735
-0.0075875
-0.00801044
-0.00843598
-0.00886186
-0.00928587
-0.00970559
-0.00758241
-0.00800706
-0.00843401
-0.00886108
-0.00928635
-0.00970733
-0.00757699
-0.00800335
-0.00843175
-0.00886009
-0.00928656
-0.00970876
-0.00757146
-0.00799951
-0.00842934
-0.00885895
-0.00928662
-0.00970999
-0.00756608
-0.00799573
-0.00842693
-0.00885776
-0.00928656
-0.00971105
-0.0075612
-0.00799225
-0.00842467
-0.0088566
-0.00928643
-0.00971191
-0.00755706
-0.00798927
-0.00842272
-0.00885557
-0.00928625
-0.00971256
-0.00771925
-0.00808445
-0.0084546
-0.00882575
-0.00919406
-0.00955549
-0.00771518
-0.0080817
-0.00845297
-0.0088251
-0.00919442
-0.00955686
-0.00771078
-0.00807867
-0.0084511
-0.00882426
-0.00919457
-0.009558
-0.00770624
-0.00807548
-0.00844908
-0.00882329
-0.0091946
-0.009559
-0.00770177
-0.0080723
-0.00844704
-0.00882227
-0.00919454
-0.00955988
-0.00769766
-0.00806935
-0.00844512
-0.00882128
-0.00919441
-0.0095606
-0.00769415
-0.00806681
-0.00844344
-0.00882039
-0.00919426
-0.00956116
-0.00784156
-0.00815395
-0.00847267
-0.00879282
-0.00910968
-0.00941827
-0.00783834
-0.00815175
-0.00847135
-0.0087923
-0.00910995
-0.00941933
-0.00783482
-0.00814929
-0.00846981
-0.00879159
-0.00911004
-0.00942023
-0.00783114
-0.00814668
-0.00846814
-0.00879078
-0.00911004
-0.00942102
-0.00782747
-0.00814405
-0.00846644
-0.00878992
-0.00910998
-0.00942173
-0.00782408
-0.0081416
-0.00846483
-0.00878908
-0.00910986
-0.00942232
-0.00782116
-0.00813947
-0.00846342
-0.00878833
-0.00910972
-0.00942278
-0.00795237
-0.00821753
-0.00848967
-0.0087635
-0.00903389
-0.00929553
-0.00794984
-0.00821579
-0.00848861
-0.00876307
-0.00903409
-0.00929635
-0.00794704
-0.00821381
-0.00848736
-0.00876249
-0.00903414
-0.00929704
-0.00794409
-0.0082117
-0.008486
-0.00876182
-0.00903412
-0.00929766
-0.00794113
-0.00820956
-0.0084846
-0.0087611
-0.00903405
-0.00929822
-0.00793837
-0.00820754
-0.00848327
-0.0087604
-0.00903394
-0.00929869
-0.00793597
-0.00820579
-0.0084821
-0.00875977
-0.00903382
-0.00929906
-0.0105845
-0.0111475
-0.01171
-0.0122627
-0.0127755
-0.0130629
-0.0129667
-0.0105894
-0.011155
-0.0117208
-0.0122778
-0.0128036
-0.0131109
-0.012998
-0.0105934
-0.0111612
-0.0117296
-0.0122894
-0.0128202
-0.0131369
-0.0130288
-0.0105968
-0.0111665
-0.011737
-0.0122994
-0.0128339
-0.0131564
-0.0130532
-0.0105996
-0.011171
-0.0117434
-0.0123082
-0.0128459
-0.0131726
-0.013073
-0.010602
-0.0111748
-0.0117488
-0.0123156
-0.0128556
-0.0131853
-0.0130886
-0.0106038
-0.0111778
-0.0117531
-0.0123213
-0.0128632
-0.013195
-0.0131002
-0.0103457
-0.010819
-0.0112752
-0.0117002
-0.0120679
-0.0122805
-0.0121403
-0.0103496
-0.0108251
-0.0112839
-0.0117125
-0.0120878
-0.0123099
-0.0121613
-0.0103529
-0.0108302
-0.0112913
-0.0117223
-0.0121015
-0.0123295
-0.0121842
-0.0103558
-0.0108348
-0.0112977
-0.011731
-0.0121131
-0.0123453
-0.0122035
-0.0103584
-0.0108388
-0.0113034
-0.0117387
-0.0121234
-0.0123587
-0.0122199
-0.0103605
-0.0108422
-0.0113082
-0.0117452
-0.0121319
-0.0123696
-0.0122332
-0.0103622
-0.010845
-0.0113121
-0.0117503
-0.0121386
-0.0123781
-0.0122435
-0.0101168
-0.0105126
-0.0108821
-0.0112103
-0.0114757
-0.0116139
-0.0115042
-0.01012
-0.0105175
-0.0108891
-0.0112199
-0.0114896
-0.011634
-0.0115192
-0.0101227
-0.0105217
-0.010895
-0.0112278
-0.0115
-0.011648
-0.0115346
-0.0101252
-0.0105255
-0.0109003
-0.0112349
-0.0115093
-0.0116598
-0.0115484
-0.0101274
-0.010529
-0.0109052
-0.0112413
-0.0115176
-0.0116703
-0.0115606
-0.0101292
-0.0105319
-0.0109093
-0.0112468
-0.0115247
-0.011679
-0.0115709
-0.0101307
-0.0105343
-0.0109127
-0.0112512
-0.0115303
-0.0116859
-0.011579
-0.00990457
-0.0102338
-0.0105325
-0.0107876
-0.0109828
-0.0110741
-0.0109795
-0.00990705
-0.0102375
-0.0105379
-0.0107946
-0.0109924
-0.0110884
-0.0109885
-0.00990924
-0.0102409
-0.0105425
-0.0108007
-0.0110003
-0.0110984
-0.0109991
-0.00991126
-0.010244
-0.0105469
-0.0108064
-0.0110074
-0.0111072
-0.011009
-0.0099131
-0.0102469
-0.0105508
-0.0108116
-0.011014
-0.0111152
-0.011018
-0.00991468
-0.0102494
-0.0105543
-0.0108161
-0.0110196
-0.0111221
-0.0110259
-0.00991595
-0.0102514
-0.0105571
-0.0108198
-0.0110242
-0.0111276
-0.0110322
-0.00971263
-0.0099853
-0.0102268
-0.0104262
-0.0105718
-0.0106316
-0.0105439
-0.00971456
-0.00998821
-0.0102308
-0.0104313
-0.0105786
-0.0106421
-0.0105504
-0.00971628
-0.00999084
-0.0102344
-0.0104359
-0.0105844
-0.0106495
-0.010558
-0.0097179
-0.00999333
-0.0102378
-0.0104403
-0.0105898
-0.0106561
-0.0105652
-0.0097194
-0.00999564
-0.010241
-0.0104444
-0.0105949
-0.0106621
-0.0105719
-0.00972069
-0.00999767
-0.0102438
-0.010448
-0.0105994
-0.0106674
-0.0105778
-0.00972175
-0.00999934
-0.0102461
-0.010451
-0.010603
-0.0106717
-0.0105827
-0.00954244
-0.00976765
-0.00996296
-0.0101196
-0.0102292
-0.0102674
-0.0101871
-0.00954392
-0.00976986
-0.00996592
-0.0101232
-0.010234
-0.0102752
-0.0101912
-0.00954526
-0.00977189
-0.00996868
-0.0101267
-0.0102382
-0.0102805
-0.0101966
-0.00954654
-0.00977384
-0.00997132
-0.01013
-0.0102423
-0.0102854
-0.0102018
-0.00954772
-0.00977567
-0.00997382
-0.0101332
-0.0102462
-0.0102899
-0.0102067
-0.00954876
-0.00977729
-0.00997604
-0.0101361
-0.0102496
-0.010294
-0.0102111
-0.00954962
-0.00977865
-0.0099779
-0.0101384
-0.0102525
-0.0102973
-0.0102148
-0.00383359
-0.00387777
-0.0042896
-0.00489184
-0.00550259
-0.0061028
-0.00669142
-0.003822
-0.00386753
-0.00428087
-0.00488455
-0.00549664
-0.00609804
-0.00668771
-0.00381633
-0.0038625
-0.00427656
-0.00488093
-0.00549367
-0.00609565
-0.00668584
-0.00381633
-0.0038625
-0.00427656
-0.00488093
-0.00549367
-0.00609565
-0.00668583
-0.003822
-0.00386753
-0.00428087
-0.00488455
-0.00549663
-0.00609803
-0.0066877
-0.00383358
-0.00387777
-0.0042896
-0.00489184
-0.00550258
-0.00610279
-0.00669141
-0.00472818
-0.00469809
-0.00500396
-0.00544305
-0.00591912
-0.00641148
-0.00691069
-0.00471787
-0.00468909
-0.0049963
-0.00543663
-0.00591385
-0.00640725
-0.00690737
-0.00471278
-0.00468463
-0.00499249
-0.00543343
-0.00591121
-0.00640512
-0.00690569
-0.00471278
-0.00468463
-0.00499249
-0.00543343
-0.00591121
-0.00640512
-0.00690569
-0.00471786
-0.00468908
-0.00499629
-0.00543663
-0.00591384
-0.00640724
-0.00690736
-0.00472817
-0.00469809
-0.00500395
-0.00544305
-0.00591911
-0.00641148
-0.00691068
-0.0054601
-0.00541316
-0.00561641
-0.00593462
-0.0063042
-0.00670531
-0.00712485
-0.00545166
-0.00540566
-0.00560994
-0.00592914
-0.00629967
-0.00670164
-0.00712195
-0.00544747
-0.00540193
-0.00560671
-0.0059264
-0.00629739
-0.00669979
-0.00712048
-0.00544747
-0.00540193
-0.0056067
-0.0059264
-0.00629739
-0.00669979
-0.00712048
-0.00545165
-0.00540566
-0.00560994
-0.00592914
-0.00629967
-0.00670164
-0.00712194
-0.00546009
-0.00541315
-0.00561641
-0.00593462
-0.0063042
-0.0067053
-0.00712484
-0.00605305
-0.00599381
-0.00613061
-0.00636444
-0.0066518
-0.00697679
-0.00732653
-0.00604629
-0.00598772
-0.00612528
-0.00635989
-0.00664799
-0.00697369
-0.00732406
-0.0060429
-0.00598467
-0.0061226
-0.00635759
-0.00664607
-0.00697212
-0.0073228
-0.0060429
-0.00598467
-0.0061226
-0.00635759
-0.00664607
-0.00697212
-0.0073228
-0.00604628
-0.00598772
-0.00612528
-0.00635988
-0.00664799
-0.00697369
-0.00732405
-0.00605305
-0.00599381
-0.00613061
-0.00636444
-0.00665179
-0.00697679
-0.00732652
-0.00653479
-0.00646859
-0.00656067
-0.00673453
-0.00695863
-0.00722119
-0.00751099
-0.00652945
-0.00646373
-0.00655637
-0.00673082
-0.0069555
-0.00721862
-0.00750893
-0.00652677
-0.00646128
-0.0065542
-0.00672894
-0.00695391
-0.00721731
-0.00750788
-0.00652677
-0.00646128
-0.0065542
-0.00672894
-0.00695391
-0.00721731
-0.00750788
-0.00652945
-0.00646373
-0.00655637
-0.00673082
-0.00695549
-0.00721861
-0.00750892
-0.00653479
-0.00646859
-0.00656067
-0.00673453
-0.00695862
-0.00722118
-0.00751098
-0.00692588
-0.00685826
-0.0069195
-0.00704967
-0.00722498
-0.00743684
-0.00767596
-0.00692173
-0.00685444
-0.00691608
-0.0070467
-0.00722244
-0.00743474
-0.00767426
-0.00691963
-0.00685251
-0.00691436
-0.00704519
-0.00722115
-0.00743366
-0.00767339
-0.00691963
-0.00685251
-0.00691435
-0.00704519
-0.00722115
-0.00743366
-0.00767339
-0.00692173
-0.00685444
-0.00691608
-0.0070467
-0.00722244
-0.00743473
-0.00767426
-0.00692588
-0.00685826
-0.00691949
-0.00704967
-0.00722497
-0.00743683
-0.00767595
-0.0106052
-0.01118
-0.0117563
-0.0123256
-0.0128687
-0.0132019
-0.0131085
-0.0106061
-0.0111814
-0.0117583
-0.0123284
-0.0128723
-0.0132064
-0.0131138
-0.0106065
-0.0111821
-0.0117594
-0.0123298
-0.0128741
-0.0132086
-0.0131164
-0.0106065
-0.0111821
-0.0117594
-0.0123298
-0.0128741
-0.0132086
-0.0131164
-0.010606
-0.0111814
-0.0117583
-0.0123284
-0.0128723
-0.0132064
-0.0131138
-0.0106052
-0.01118
-0.0117562
-0.0123256
-0.0128687
-0.0132019
-0.0131085
-0.0103635
-0.010847
-0.011315
-0.0117542
-0.0121435
-0.0123843
-0.0122509
-0.0103643
-0.0108483
-0.0113169
-0.0117567
-0.0121467
-0.0123883
-0.0122558
-0.0103647
-0.010849
-0.0113178
-0.011758
-0.0121483
-0.0123903
-0.0122582
-0.0103647
-0.010849
-0.0113178
-0.011758
-0.0121483
-0.0123903
-0.0122582
-0.0103643
-0.0108483
-0.0113169
-0.0117567
-0.0121467
-0.0123883
-0.0122558
-0.0103635
-0.010847
-0.011315
-0.0117542
-0.0121435
-0.0123843
-0.0122509
-0.0101319
-0.0105361
-0.0109152
-0.0112546
-0.0115345
-0.0116911
-0.0115851
-0.0101326
-0.0105373
-0.0109169
-0.0112568
-0.0115373
-0.0116944
-0.011589
-0.010133
-0.0105379
-0.0109177
-0.0112579
-0.0115386
-0.0116961
-0.011591
-0.010133
-0.0105379
-0.0109177
-0.0112579
-0.0115386
-0.0116961
-0.011591
-0.0101326
-0.0105373
-0.0109169
-0.0112568
-0.0115373
-0.0116944
-0.011589
-0.0101318
-0.0105361
-0.0109152
-0.0112545
-0.0115345
-0.0116911
-0.011585
-0.00991692
-0.0102529
-0.0105592
-0.0108226
-0.0110277
-0.0111318
-0.011037
-0.00991756
-0.0102539
-0.0105607
-0.0108244
-0.01103
-0.0111345
-0.0110402
-0.00991788
-0.0102545
-0.0105614
-0.0108254
-0.0110312
-0.0111359
-0.0110417
-0.00991787
-0.0102545
-0.0105614
-0.0108254
-0.0110312
-0.0111359
-0.0110417
-0.00991755
-0.0102539
-0.0105607
-0.0108244
-0.01103
-0.0111345
-0.0110402
-0.0099169
-0.0102529
-0.0105592
-0.0108226
-0.0110277
-0.0111317
-0.011037
-0.00972256
-0.0100006
-0.0102479
-0.0104533
-0.0106058
-0.010675
-0.0105864
-0.0097231
-0.0100015
-0.0102491
-0.0104548
-0.0106077
-0.0106772
-0.0105889
-0.00972336
-0.0100019
-0.0102497
-0.0104556
-0.0106087
-0.0106783
-0.0105902
-0.00972336
-0.0100019
-0.0102497
-0.0104556
-0.0106087
-0.0106783
-0.0105902
-0.00972309
-0.0100015
-0.0102491
-0.0104548
-0.0106077
-0.0106772
-0.0105889
-0.00972254
-0.0100006
-0.0102479
-0.0104533
-0.0106058
-0.010675
-0.0105864
-0.00955028
-0.00977969
-0.00997933
-0.0101403
-0.0102547
-0.0102999
-0.0102177
-0.00955072
-0.00978039
-0.0099803
-0.0101415
-0.0102562
-0.0103016
-0.0102196
-0.00955094
-0.00978075
-0.00998079
-0.0101421
-0.010257
-0.0103025
-0.0102206
-0.00955094
-0.00978075
-0.00998079
-0.0101421
-0.010257
-0.0103025
-0.0102206
-0.00955071
-0.00978039
-0.0099803
-0.0101415
-0.0102562
-0.0103016
-0.0102196
-0.00955027
-0.00977968
-0.00997932
-0.0101402
-0.0102547
-0.0102999
-0.0102177