/*--------------------------------*- C++ -*----------------------------------*\
  =========                 |
  \\      /  F ield         | OpenFOAM: The Open Source CFD Toolbox
   \\    /   O peration     | Website:  https://openfoam.org
    \\  /    A nd           | Version:  7
     \\/     M anipulation  |
\*---------------------------------------------------------------------------*/
FoamFile
{
    version     2.0;
    format      ascii;
    class       volVectorField;
    location    "0.5";
    object      ddt0(U);
}
// * * * * * * * * * * * * * * * * * * * * * * * * * * * * * * * * * * * * * //

dimensions      [0 1 -2 0 0 0 0];

internalField   nonuniform List<vector> 
7784
(
(0.969496 0.000771816 -0.000396368)
(0.969088 0.000877482 -0.000393965)
(0.968472 0.00106117 -0.000384136)
(0.967529 0.00129126 -0.000366084)
(0.9662 0.00151754 -0.00033777)
(0.96452 0.00166703 -0.000301071)
(0.962651 0.00166393 -0.000262005)
(0.969605 0.0018533 -0.000390269)
(0.969344 0.0021216 -0.000380077)
(0.968832 0.00259561 -0.000358901)
(0.967925 0.00319849 -0.000323702)
(0.966526 0.00380541 -0.000273035)
(0.964649 0.00422141 -0.000215333)
(0.962494 0.00422671 -0.000171303)
(0.969811 0.00270338 -0.000388787)
(0.969839 0.00314175 -0.000365606)
(0.969551 0.00393685 -0.00032087)
(0.968739 0.0049817 -0.000246925)
(0.967225 0.00608245 -0.000141037)
(0.964948 0.00689166 -2.53892e-05)
(0.962178 0.00695322 3.72446e-05)
(0.970118 0.0031557 -0.00038423)
(0.97059 0.00376763 -0.000336649)
(0.970678 0.00490717 -0.000244022)
(0.970074 0.00647278 -8.57252e-05)
(0.968441 0.00823161 0.000150286)
(0.965526 0.00965619 0.000418167)
(0.961651 0.00988359 0.000544889)
(0.970525 0.00307374 -0.000364914)
(0.971604 0.00382332 -0.000274492)
(0.972261 0.00526643 -9.08063e-05)
(0.972065 0.00736508 0.000240038)
(0.970409 0.00992439 0.00076546)
(0.966601 0.0122666 0.00141482)
(0.960834 0.0128872 0.00175117)
(0.970991 0.00229815 -0.000324459)
(0.972798 0.0030636 -0.000167472)
(0.974224 0.00459958 0.000170433)
(0.974733 0.00699487 0.000819457)
(0.973343 0.0102311 0.00193332)
(0.968491 0.0136852 0.00347216)
(0.959635 0.0150928 0.00446974)
(0.971415 0.000764039 -0.000269001)
(0.973919 0.00131174 -2.87773e-05)
(0.976195 0.00246108 0.000522984)
(0.977697 0.00439582 0.00166776)
(0.977101 0.007336 0.00383551)
(0.971472 0.0110736 0.00729318)
(0.958063 0.0131021 0.010072)
(0.0849862 0.000924461 -0.00123218)
(0.0845199 0.00105272 -0.00122341)
(0.083811 0.00128171 -0.00119729)
(0.0827228 0.00157358 -0.00114802)
(0.08118 0.00186707 -0.00106897)
(0.0792185 0.00206822 -0.000962666)
(0.0770255 0.00207073 -0.000843094)
(0.0851241 0.00217745 -0.00123364)
(0.0848378 0.00250378 -0.00121021)
(0.0842621 0.00308944 -0.00115898)
(0.0832288 0.00384876 -0.00107063)
(0.0816118 0.00463459 -0.000937964)
(0.0794061 0.00519903 -0.000778701)
(0.0768421 0.0052297 -0.000645076)
(0.0853822 0.00317261 -0.00124607)
(0.0854513 0.00371334 -0.00119366)
(0.0851641 0.00470964 -0.00108664)
(0.0842752 0.00605213 -0.000901597)
(0.0825439 0.00752185 -0.000625177)
(0.0798376 0.00867551 -0.000307771)
(0.0764386 0.00883073 -0.000117989)
(0.0857739 0.00372207 -0.00124879)
(0.0864002 0.00449414 -0.00113978)
(0.0866117 0.00595938 -0.00091242)
(0.0860476 0.00804327 -0.000504627)
(0.0842446 0.0105141 0.000131847)
(0.0807289 0.0127066 0.000896616)
(0.0757106 0.0132443 0.00130003)
(0.0863043 0.00366077 -0.00121284)
(0.0877169 0.00463524 -0.000998838)
(0.0887222 0.00656014 -0.000531483)
(0.0888318 0.00949792 0.000356045)
(0.0872088 0.0133566 0.0018452)
(0.0825715 0.0173479 0.00382759)
(0.0744705 0.0189343 0.00500912)
(0.0869327 0.00278528 -0.00111824)
(0.0893295 0.00381953 -0.000732505)
(0.0914829 0.00597416 0.000161992)
(0.0928456 0.00957626 0.00198816)
(0.0920974 0.0149779 0.00534475)
(0.0863208 0.0217799 0.0104466)
(0.0723879 0.0258174 0.0142182)
(0.0875292 0.000986545 -0.000976679)
(0.0909327 0.00176135 -0.000364229)
(0.0944857 0.00348039 0.00116003)
(0.0978382 0.00669057 0.00457389)
(0.0994266 0.0124005 0.0116829)
(0.0934952 0.0214603 0.0249301)
(0.0691998 0.0292572 0.0400713)
(0.00723218 0.000924643 -0.00211876)
(0.00677559 0.00106002 -0.00211113)
(0.00608384 0.00130599 -0.00208683)
(0.00501874 0.00162601 -0.00203439)
(0.0034976 0.00195835 -0.00193713)
(0.00154447 0.00219817 -0.00178742)
(-0.00065379 0.0022112 -0.00159133)
(0.00737884 0.00217617 -0.00215811)
(0.00711603 0.00252421 -0.00214095)
(0.00657518 0.00315983 -0.00210047)
(0.00558485 0.00400549 -0.00202002)
(0.00400062 0.0049177 -0.00187863)
(0.00178138 0.00561889 -0.00168032)
(-0.00085463 0.00569659 -0.00146938)
(0.00765684 0.00318287 -0.00222543)
(0.00778202 0.00377198 -0.00218889)
(0.00757492 0.00488104 -0.00210712)
(0.00678649 0.00643102 -0.0019444)
(0.005129 0.00823101 -0.00166618)
(0.00235429 0.00978846 -0.00130054)
(-0.00133868 0.0101315 -0.0010204)
(0.00808946 0.0037695 -0.00229573)
(0.00884346 0.00463808 -0.00221585)
(0.0092453 0.00633629 -0.00202942)
(0.00894159 0.00888263 -0.00164999)
(0.00736773 0.0121657 -0.000981517)
(0.00369686 0.0155044 -6.83685e-05)
(-0.0022997 0.0167621 0.000535617)
(0.00869686 0.00376881 -0.00233069)
(0.010382 0.00491406 -0.00215851)
(0.0118289 0.00727551 -0.00173638)
(0.012618 0.0111636 -0.00083164)
(0.0117539 0.0168927 0.000889704)
(0.00696209 0.0239753 0.00354039)
(-0.0041955 0.0280641 0.0053643)
(0.00945293 0.00295264 -0.00229482)
(0.0123858 0.00423986 -0.00195373)
(0.0155041 0.00709849 -0.0010622)
(0.0185617 0.012438 0.00100916)
(0.0201937 0.021852 0.00544142)
(0.0149535 0.0371464 0.0134644)
(-0.00795308 0.0527258 0.0210991)
(0.0102204 0.00115393 -0.00218191)
(0.0145606 0.00218611 -0.00159248)
(0.0200351 0.00470368 8.1136e-05)
(0.0273818 0.0102342 0.00445481)
(0.036547 0.0226286 0.0155601)
(0.0384661 0.0521242 0.0440101)
(-0.0117938 0.0998793 0.0915236)
(0.960843 0.00148376 -0.00022297)
(0.9593 0.00119826 -0.000171257)
(0.958075 0.000888375 -9.72425e-05)
(0.957112 0.000604941 3.78439e-06)
(0.956293 0.000369814 0.000137268)
(0.955471 0.000187198 0.000315581)
(0.960442 0.00373769 -0.000154428)
(0.958785 0.00297998 -0.000129474)
(0.957562 0.00217912 -7.54969e-05)
(0.956663 0.00146241 1.30032e-05)
(0.95593 0.000877573 0.000139078)
(0.955193 0.000429116 0.000312994)
(0.959611 0.00603903 -9.46519e-06)
(0.957758 0.00468788 -5.17695e-05)
(0.956574 0.00333197 -4.18209e-05)
(0.955826 0.00216812 2.27441e-05)
(0.955274 0.00124765 0.000136599)
(0.95471 0.000557933 0.000303908)
(0.958188 0.00830976 0.000317409)
(0.956092 0.00617363 0.000111537)
(0.955058 0.00419383 2.63949e-05)
(0.954595 0.00259442 4.35869e-05)
(0.954337 0.00138327 0.000134714)
(0.954034 0.000502435 0.00028949)
(0.955904 0.0102465 0.00101633)
(0.953644 0.00712233 0.000434337)
(0.952998 0.00452773 0.000157966)
(0.953018 0.00258723 8.72276e-05)
(0.953186 0.00119131 0.000137285)
(0.953227 0.000206603 0.000267359)
(0.952425 0.0108872 0.00234301)
(0.950374 0.00682847 0.000982788)
(0.950523 0.00391906 0.000370537)
(0.951258 0.00193116 0.000158758)
(0.951956 0.000572325 0.000144512)
(0.952391 -0.000366654 0.000230674)
(0.947646 0.00814416 0.00452891)
(0.946677 0.00424103 0.00172437)
(0.9481 0.00192305 0.000637157)
(0.949671 0.000472261 0.000245038)
(0.950887 -0.000496542 0.000145669)
(0.951674 -0.00117679 0.000160066)
(0.0749141 0.00183325 -0.00071605)
(0.0731331 0.00146551 -0.000547506)
(0.0717401 0.0010761 -0.00031301)
(0.0706643 0.000726351 -6.27399e-07)
(0.0697759 0.000439632 0.000404083)
(0.0689219 0.000218603 0.000933684)
(0.0744179 0.0045758 -0.000574987)
(0.0725105 0.00359935 -0.00047112)
(0.0711348 0.00260106 -0.000281318)
(0.0701471 0.00172782 5.9032e-06)
(0.0693686 0.00102525 0.000397669)
(0.0686217 0.00049067 0.000920577)
(0.0733307 0.00752479 -0.000227912)
(0.0712119 0.0057202 -0.000302231)
(0.0699254 0.00399843 -0.000221395)
(0.0691465 0.00256706 1.11944e-05)
(0.0685975 0.001456 0.000377585)
(0.0680621 0.000630451 0.000887489)
(0.071331 0.010731 0.000629136)
(0.0690115 0.00770409 9.14263e-05)
(0.0680121 0.00510646 -7.64974e-05)
(0.0676375 0.00310118 4.12838e-05)
(0.0674667 0.00162054 0.000356384)
(0.0672512 0.000552614 0.000837505)
(0.067795 0.0139814 0.00259006)
(0.0655911 0.00919458 0.000914073)
(0.0653264 0.00564024 0.000226587)
(0.0656649 0.00314314 0.000125521)
(0.0660534 0.00140497 0.000345234)
(0.0662646 0.000184522 0.000764482)
(0.0616017 0.0161889 0.0065549)
(0.0606713 0.00925822 0.00234751)
(0.0619599 0.00505831 0.00073049)
(0.0634013 0.00241578 0.000279183)
(0.0645072 0.000678172 0.000350382)
(0.0652036 -0.000534756 0.000650293)
(0.0513718 0.0137576 0.0131159)
(0.0544988 0.00619932 0.00413966)
(0.0585019 0.0026743 0.00134526)
(0.0612968 0.000682787 0.000474001)
(0.0631129 -0.000612261 0.000348742)
(0.0642316 -0.0015678 0.000431888)
(-0.00275207 0.00193216 -0.0013511)
(-0.00448098 0.00151768 -0.00103068)
(-0.00579588 0.00109635 -0.000607984)
(-0.00677408 0.000728958 -7.23523e-05)
(-0.00753354 0.000433432 0.000593602)
(-0.00819687 0.000208067 0.00143106)
(-0.00331257 0.00488738 -0.00128573)
(-0.00515711 0.00375475 -0.00102103)
(-0.00642802 0.00265886 -0.000628968)
(-0.00729696 0.00173522 -0.000104442)
(-0.00793429 0.00100843 0.000559845)
(-0.00848325 0.000461282 0.00139823)
(-0.00463386 0.00832158 -0.00104406)
(-0.00664103 0.00609279 -0.000957426)
(-0.00774244 0.00413795 -0.000654515)
(-0.00834923 0.00259593 -0.000161903)
(-0.00873079 0.00143342 0.000495112)
(-0.00905646 0.000578291 0.00133145)
(-0.00732634 0.0126154 -0.000257408)
(-0.00931253 0.00850439 -0.000698898)
(-0.00989382 0.00540245 -0.000627585)
(-0.00996825 0.00318061 -0.000215936)
(-0.00991697 0.00160331 0.000416646)
(-0.00990292 0.000472176 0.00123686)
(-0.0128813 0.0179983 0.00193534)
(-0.0138497 0.0106626 -2.14929e-05)
(-0.0130626 0.0061558 -0.000479984)
(-0.0121446 0.0032958 -0.000235318)
(-0.0114352 0.00140291 0.000343443)
(-0.0109725 5.87134e-05 0.00110961)
(-0.0245884 0.0232977 0.0067905)
(-0.0211139 0.0112556 0.00119971)
(-0.0172401 0.00573403 -0.000210067)
(-0.0147064 0.00262965 -0.000204354)
(-0.0131415 0.000691014 0.000304087)
(-0.0122034 -0.000744262 0.000941643)
(-0.0497856 0.0244944 0.0169714)
(-0.0305259 0.00763223 0.00209301)
(-0.0211675 0.00322891 -8.9591e-06)
(-0.0167873 0.00089949 -0.000119132)
(-0.0144579 -0.000630122 0.000347451)
(-0.0132644 -0.00196186 0.000709447)
(0.95446 5.32036e-05 0.000566083)
(0.95301 -3.9887e-05 0.000946843)
(0.950736 -0.000103916 0.00158529)
(0.946874 -0.000155145 0.00277068)
(0.939056 -0.000192729 0.00528884)
(0.923885 -0.000210387 0.0118912)
(0.937842 -0.000775036 0.0282659)
(0.954258 0.000104374 0.000561138)
(0.952868 -0.000116001 0.000941995)
(0.950628 -0.000260035 0.00158357)
(0.946791 -0.000361474 0.00277953)
(0.93899 -0.000435819 0.00530501)
(0.923348 -0.000495592 0.0119295)
(0.93725 -0.00115128 0.028734)
(0.953926 6.96133e-05 0.000548616)
(0.952656 -0.000248662 0.000929824)
(0.9505 -0.0004418 0.00157466)
(0.946712 -0.000557566 0.00277632)
(0.938924 -0.000637543 0.00531023)
(0.923159 -0.000723955 0.0119433)
(0.937089 -0.000917872 0.0288441)
(0.953471 -0.000103718 0.000526879)
(0.952378 -0.000474878 0.000909094)
(0.950343 -0.000677543 0.00155973)
(0.946625 -0.000778807 0.00276903)
(0.938864 -0.000831945 0.00531176)
(0.923089 -0.000876774 0.0119567)
(0.93704 -0.00093303 0.0288741)
(0.952953 -0.000451365 0.000487052)
(0.952087 -0.00081411 0.00087114)
(0.950202 -0.000976576 0.00153223)
(0.946564 -0.00102925 0.0027529)
(0.938836 -0.00103558 0.00530561)
(0.923066 -0.00103438 0.0119595)
(0.937025 -0.00103826 0.028884)
(0.952451 -0.000979614 0.000411218)
(0.951853 -0.00125211 0.000802694)
(0.950128 -0.00131672 0.00148517)
(0.946566 -0.00128691 0.00272513)
(0.93886 -0.00123036 0.00529177)
(0.923084 -0.00118264 0.011955)
(0.937032 -0.00115611 0.0288847)
(0.952067 -0.00161515 0.00026498)
(0.95175 -0.00171343 0.000684618)
(0.950167 -0.00163661 0.00141176)
(0.946651 -0.00150758 0.00268459)
(0.938942 -0.00138538 0.00527149)
(0.92314 -0.00129579 0.0119463)
(0.937054 -0.0012468 0.0288815)
(0.0679317 5.76996e-05 0.00165714)
(0.0666093 -5.17032e-05 0.0027114)
(0.0647287 -0.000122471 0.00436963)
(0.0620395 -0.000168108 0.00718949)
(0.0582091 -0.000192394 0.0124712)
(0.0548951 -0.000205165 0.0239929)
(0.066781 -0.000432813 0.0482157)
(0.0677269 0.000106115 0.00164138)
(0.0664825 -0.000149901 0.00269806)
(0.0646583 -0.000309907 0.00436391)
(0.0620136 -0.00040832 0.00720025)
(0.0582285 -0.000467143 0.0124849)
(0.054727 -0.0005136 0.0240308)
(0.066597 -0.000797052 0.0487219)
(0.0673517 4.89278e-05 0.00160155)
(0.0662565 -0.000321674 0.00266102)
(0.0645382 -0.0005381 0.00433603)
(0.0619585 -0.000659248 0.00718483)
(0.0582004 -0.000733236 0.0124831)
(0.0546504 -0.000803607 0.0240359)
(0.0665349 -0.000926901 0.0488846)
(0.0668135 -0.000181794 0.0015325)
(0.0659371 -0.000613879 0.00259693)
(0.0643665 -0.000835875 0.00428955)
(0.0618704 -0.000936944 0.00715895)
(0.0581461 -0.000982478 0.0124776)
(0.0545951 -0.00101743 0.0240531)
(0.0664975 -0.00105775 0.048928)
(0.0661903 -0.000641879 0.00140523)
(0.0656081 -0.00105788 0.00247913)
(0.0642213 -0.00121753 0.00420586)
(0.0618193 -0.00125018 0.00710954)
(0.0581302 -0.00123565 0.0124561)
(0.0545826 -0.00121921 0.0240541)
(0.0664879 -0.0012148 0.048945)
(0.0655709 -0.00136503 0.00115316)
(0.0653614 -0.00164931 0.00225965)
(0.0641742 -0.00166052 0.00406059)
(0.0618527 -0.00157514 0.00702587)
(0.0581798 -0.00147635 0.0124144)
(0.0546179 -0.00140232 0.0240389)
(0.0665014 -0.00136367 0.048944)
(0.0650744 -0.00227607 0.000592181)
(0.0653124 -0.00229086 0.00184837)
(0.0642955 -0.00208097 0.00382448)
(0.0620039 -0.00185254 0.00690153)
(0.0583061 -0.00166568 0.0123542)
(0.0546993 -0.00153884 0.0240134)
(0.066534 -0.00147339 0.0489345)
(-0.00887844 4.57369e-05 0.00252195)
(-0.00967334 -6.13789e-05 0.00401355)
(-0.0106232 -0.000126609 0.00615767)
(-0.0116357 -0.000164437 0.00937714)
(-0.0122608 -0.000186513 0.0143817)
(-0.0105447 -0.00022561 0.0224311)
(-0.00204589 -0.000371228 0.0335296)
(-0.00906273 7.08411e-05 0.00249113)
(-0.00977268 -0.000181179 0.00398779)
(-0.0106601 -0.000329978 0.00613878)
(-0.0116303 -0.000413382 0.00936402)
(-0.0122472 -0.00046268 0.0143583)
(-0.0106263 -0.000527021 0.0223834)
(-0.00211612 -0.000707459 0.0336717)
(-0.00944107 -2.27334e-05 0.00242292)
(-0.00999134 -0.000389173 0.00392772)
(-0.0107679 -0.00058816 0.00609212)
(-0.0116739 -0.000687942 0.00933065)
(-0.0122692 -0.00074129 0.0143341)
(-0.0106762 -0.000790762 0.0223604)
(-0.00215392 -0.000866936 0.0337102)
(-0.00999212 -0.000317077 0.00230953)
(-0.0102982 -0.000741606 0.00382806)
(-0.0109167 -0.000930191 0.00602126)
(-0.0117384 -0.000996096 0.00928928)
(-0.0123013 -0.00101185 0.0143183)
(-0.0107065 -0.00102133 0.0223679)
(-0.00217427 -0.00103936 0.0337385)
(-0.0106501 -0.000910182 0.00210248)
(-0.0105994 -0.00129754 0.00364429)
(-0.0110171 -0.00138274 0.00589562)
(-0.0117496 -0.00135094 0.00921647)
(-0.0122863 -0.00129063 0.0142852)
(-0.010696 -0.00124374 0.0223635)
(-0.00217239 -0.00122303 0.0337524)
(-0.0113492 -0.0019663 0.00166002)
(-0.0107709 -0.00210695 0.00328254)
(-0.0109701 -0.00193587 0.00567171)
(-0.011646 -0.00172919 0.00909348)
(-0.0121913 -0.00155807 0.0142259)
(-0.010634 -0.0014434 0.0223421)
(-0.00214793 -0.00138684 0.0337501)
(-0.0118613 -0.00356428 0.000434954)
(-0.0105698 -0.00309112 0.00250977)
(-0.0106394 -0.00248809 0.00528007)
(-0.0113714 -0.0020551 0.00890462)
(-0.0119973 -0.00176609 0.0141399)
(-0.0105182 -0.00158863 0.0223081)
(-0.00210256 -0.00150277 0.0337391)
(0.971627 -0.00135517 -0.000226805)
(0.974504 -0.00129041 7.11664e-05)
(0.97731 -0.00115897 0.000792485)
(0.979609 -0.00096028 0.00240522)
(0.980025 -0.000700009 0.00582662)
(0.974283 -0.000436978 0.0121401)
(0.956806 -0.000397311 0.0185944)
(0.971491 -0.00356789 -0.000232704)
(0.974116 -0.00400972 2.51975e-05)
(0.976524 -0.00494738 0.000619578)
(0.978156 -0.00657524 0.00185661)
(0.977625 -0.00913913 0.00421299)
(0.971774 -0.0125375 0.00800538)
(0.957583 -0.0145501 0.0110587)
(0.971116 -0.00535414 -0.000258452)
(0.973116 -0.00606793 -7.50861e-05)
(0.974739 -0.00750418 0.000322972)
(0.975415 -0.00977576 0.00109246)
(0.974058 -0.0128984 0.00242713)
(0.968846 -0.0163083 0.00430585)
(0.958991 -0.0177698 0.00552482)
(0.970663 -0.00647834 -0.000276202)
(0.971952 -0.00723323 -0.000158889)
(0.972809 -0.00868616 8.34037e-05)
(0.97276 -0.0108193 0.000524744)
(0.97109 -0.0134523 0.0012382)
(0.966894 -0.015903 0.00215164)
(0.960231 -0.0165724 0.00264168)
(0.970239 -0.00694469 -0.000276842)
(0.970892 -0.00760763 -0.000206654)
(0.971144 -0.0088389 -6.63841e-05)
(0.970647 -0.0105443 0.000177637)
(0.968974 -0.0124811 0.000552026)
(0.965724 -0.0140759 0.00100315)
(0.961161 -0.0143352 0.00122708)
(0.969892 -0.00687096 -0.000262657)
(0.970042 -0.00739239 -0.000223276)
(0.969863 -0.00833356 -0.000145324)
(0.969116 -0.00957882 -1.48529e-05)
(0.967559 -0.0109036 0.000176013)
(0.96504 -0.0118954 0.000393776)
(0.961822 -0.011969 0.000488114)
(0.087846 -0.00155938 -0.000860816)
(0.0918397 -0.00146415 -8.05127e-05)
(0.0964151 -0.00126723 0.00198566)
(0.101771 -0.000944185 0.0070781)
(0.106909 -0.000453834 0.0194)
(0.103492 0.000183713 0.0496708)
(0.0678058 0.000499644 0.0989159)
(0.0876397 -0.00422135 -0.000868564)
(0.0912221 -0.00484184 -0.000204414)
(0.0950023 -0.00625139 0.00145245)
(0.098651 -0.00898428 0.00517852)
(0.100554 -0.0140366 0.0130177)
(0.0944514 -0.0223646 0.0278518)
(0.0684817 -0.0298201 0.045134)
(0.0871112 -0.00632901 -0.000920809)
(0.0897868 -0.0072884 -0.000458928)
(0.0922627 -0.00930743 0.000618916)
(0.0939794 -0.0127469 0.00283718)
(0.0934867 -0.0180163 0.00699129)
(0.0872887 -0.024836 0.0135572)
(0.0712519 -0.0290155 0.0188609)
(0.0864993 -0.00762413 -0.000945819)
(0.0882079 -0.00860215 -0.000654816)
(0.0895293 -0.0105471 -1.11893e-05)
(0.0899384 -0.0135594 0.00122746)
(0.0884512 -0.0175855 0.00336886)
(0.0833259 -0.0218578 0.0064219)
(0.0734624 -0.0235987 0.00855375)
(0.0859434 -0.00814033 -0.000923382)
(0.0868222 -0.00897517 -0.000749765)
(0.0872882 -0.0105685 -0.000380053)
(0.0869384 -0.012869 0.00029706)
(0.0851854 -0.0156496 0.00140601)
(0.0812374 -0.0182006 0.00290198)
(0.0749313 -0.018879 0.00392069)
(0.0854971 -0.00802998 -0.000862227)
(0.0857371 -0.0086721 -0.000763341)
(0.0856171 -0.00986233 -0.000557511)
(0.0848549 -0.0114946 -0.000196224)
(0.0831191 -0.0133287 0.000369044)
(0.0800782 -0.0148576 0.00109983)
(0.0758393 -0.0151661 0.00158126)
(0.0106661 -0.0015059 -0.00205449)
(0.0159558 -0.00137421 -0.00125851)
(0.0235575 -0.00108601 0.00118845)
(0.0365155 -0.000541289 0.00834758)
(0.0623997 0.000492565 0.0310471)
(0.098353 0.00237357 0.115651)
(0.0145326 0.00476407 0.36447)
(0.0103714 -0.00429509 -0.00202054)
(0.0149762 -0.00511834 -0.00135981)
(0.0208647 -0.00720095 0.000512245)
(0.0289597 -0.0119796 0.00541796)
(0.0394711 -0.0231363 0.0179633)
(0.0434127 -0.0505854 0.050295)
(-0.00847013 -0.0952178 0.10982)
(0.00969087 -0.00643069 -0.00199568)
(0.0130198 -0.00762219 -0.00155063)
(0.0166837 -0.0103161 -0.000390654)
(0.0205503 -0.0154709 0.0023173)
(0.0232898 -0.0248283 0.00825609)
(0.0186928 -0.0405201 0.0197344)
(-0.00782601 -0.0563678 0.0342239)
(0.00895203 -0.0076907 -0.00191763)
(0.011045 -0.00884255 -0.00164078)
(0.0129999 -0.0112522 -0.000963678)
(0.0144362 -0.015303 0.000495404)
(0.0142731 -0.0214427 0.00339741)
(0.00948837 -0.0293522 0.00844538)
(-0.00478736 -0.0338778 0.0142007)
(0.00830955 -0.0081587 -0.00178095)
(0.0094059 -0.00910503 -0.00161309)
(0.0102051 -0.0109839 -0.00122136)
(0.0103557 -0.0138691 -0.00042077)
(0.00919539 -0.017724 0.00109014)
(0.00537593 -0.0218988 0.00362429)
(-0.00281337 -0.0234774 0.0067481)
(0.00780846 -0.00801017 -0.00160638)
(0.00816655 -0.00871897 -0.0015061)
(0.00821673 -0.0100799 -0.00128186)
(0.00769348 -0.0120459 -0.000844483)
(0.00622223 -0.0144704 -5.23135e-05)
(0.0032389 -0.016881 0.00125689)
(-0.00187319 -0.0177521 0.00299505)
(0.943605 -0.000916001 0.00669669)
(0.944163 -0.00124567 0.0022581)
(0.946758 -0.00145463 0.000809825)
(0.948841 -0.00164533 0.000291973)
(0.950309 -0.00183933 0.000107984)
(0.951274 -0.00202593 2.72032e-05)
(0.946808 -0.0102448 0.00462843)
(0.946144 -0.00684387 0.00173631)
(0.947704 -0.00488921 0.000666351)
(0.949289 -0.0037623 0.00024158)
(0.950508 -0.00310893 6.31e-05)
(0.95137 -0.00272116 -5.17449e-05)
(0.951271 -0.0136272 0.0026117)
(0.949516 -0.00976459 0.00108319)
(0.949839 -0.0070581 0.000436737)
(0.950621 -0.00523719 0.000157408)
(0.95135 -0.00401519 2.30291e-05)
(0.951927 -0.00317788 -8.62815e-05)
(0.954794 -0.0137234 0.00135791)
(0.952712 -0.0105411 0.000594005)
(0.952231 -0.00792861 0.000241393)
(0.952331 -0.00594034 7.98531e-05)
(0.952567 -0.00445808 -5.78977e-06)
(0.952803 -0.00335047 -8.89557e-05)
(0.957293 -0.0124799 0.000637248)
(0.95531 -0.0101003 0.000264366)
(0.95444 -0.00788119 8.82239e-05)
(0.954091 -0.00600449 1.11481e-05)
(0.95394 -0.00447547 -2.60913e-05)
(0.953855 -0.00325015 -6.61632e-05)
(0.959024 -0.0107481 0.000184264)
(0.957311 -0.00901731 8.42471e-07)
(0.956327 -0.00723101 -6.74563e-05)
(0.955738 -0.00558427 -7.30843e-05)
(0.955322 -0.00414396 -4.99341e-05)
(0.954968 -0.00292646 -1.97324e-05)
(0.0408223 -0.000927692 0.0216979)
(0.0500239 -0.00142858 0.00516565)
(0.0566946 -0.00166147 0.00178513)
(0.0603043 -0.00191339 0.000617981)
(0.0624203 -0.00221208 0.000209223)
(0.0637125 -0.0025521 -7.45458e-05)
(0.0501461 -0.0157587 0.0129385)
(0.0541158 -0.00905287 0.00404799)
(0.0582465 -0.00602725 0.00148791)
(0.0609233 -0.00449406 0.00051202)
(0.0626298 -0.00368869 9.4686e-05)
(0.0637449 -0.0032673 -0.000312067)
(0.0596815 -0.0189277 0.00697991)
(0.0597076 -0.0124112 0.00253869)
(0.0612598 -0.00859383 0.000974115)
(0.0626482 -0.00623158 0.000330507)
(0.0636532 -0.00472524 7.85778e-06)
(0.064385 -0.00372487 -0.000395361)
(0.0659813 -0.0178101 0.0035272)
(0.0644158 -0.0130081 0.0013766)
(0.0644248 -0.00953182 0.000531985)
(0.0647912 -0.0070328 0.000160968)
(0.0651374 -0.00522037 -5.21748e-05)
(0.065447 -0.00387063 -0.000388761)
(0.0698944 -0.0156037 0.00162536)
(0.0679687 -0.012282 0.000589986)
(0.0672356 -0.00943819 0.000174753)
(0.0669603 -0.00711287 7.80926e-07)
(0.0668174 -0.00523554 -9.84993e-05)
(0.0667579 -0.00370726 -0.000314731)
(0.072343 -0.0132395 0.000380659)
(0.0705702 -0.010959 -0.000130127)
(0.0695941 -0.00871164 -0.000271917)
(0.0689937 -0.00666098 -0.000256909)
(0.0685434 -0.00485308 -0.000186945)
(0.0681951 -0.00327448 -0.000179436)
(-0.0811253 -0.000747582 0.0315591)
(-0.0333189 -0.00123873 0.00405424)
(-0.0200094 -0.00133945 0.000956872)
(-0.0154962 -0.0016196 0.00031352)
(-0.0132782 -0.00204105 0.000106508)
(-0.012298 -0.00265145 -0.000220017)
(-0.0448548 -0.0220775 0.0139764)
(-0.0256589 -0.00897064 0.00260511)
(-0.0180586 -0.00555189 0.000832003)
(-0.0147369 -0.00399836 0.000274928)
(-0.0130385 -0.00327314 2.29035e-05)
(-0.0123697 -0.00300846 -0.000460948)
(-0.0238558 -0.021579 0.005844)
(-0.0181802 -0.0119417 0.00154905)
(-0.0148511 -0.00783813 0.000544088)
(-0.013054 -0.00552428 0.000176451)
(-0.0121132 -0.00413604 -2.64863e-05)
(-0.0118461 -0.00326623 -0.000522266)
(-0.0135777 -0.018358 0.00275019)
(-0.0125988 -0.0121417 0.000819817)
(-0.0116511 -0.0085834 0.000293981)
(-0.0110313 -0.00621087 8.3205e-05)
(-0.0107524 -0.00454592 -5.73092e-05)
(-0.0108482 -0.00330702 -0.000499624)
(-0.00814198 -0.0152465 0.00125117)
(-0.00875026 -0.0113333 0.000333138)
(-0.00892844 -0.00853274 7.95427e-05)
(-0.00901632 -0.006342 -1.50615e-05)
(-0.00919081 -0.00458422 -8.45331e-05)
(-0.00953789 -0.00309799 -0.000416446)
(-0.00523735 -0.0129506 0.000178978)
(-0.00616464 -0.0104427 -0.000284895)
(-0.00673087 -0.00822253 -0.000340357)
(-0.00715192 -0.00619543 -0.000279487)
(-0.00757237 -0.00436199 -0.00019413)
(-0.00803259 -0.00262866 -0.000278607)
(0.951913 -0.00214585 2.04313e-05)
(0.951831 -0.00204198 0.000513334)
(0.950334 -0.00183986 0.00131794)
(0.946818 -0.00163466 0.00263711)
(0.939073 -0.00146671 0.005249)
(0.923224 -0.0013502 0.0119367)
(0.937087 -0.00128797 0.0288778)
(0.952051 -0.00245649 -0.000118575)
(0.952056 -0.00216818 0.000406158)
(0.950574 -0.00188496 0.00125429)
(0.947025 -0.00164348 0.00260371)
(0.939228 -0.00145917 0.00523328)
(0.92332 -0.00133511 0.0119305)
(0.937125 -0.00126971 0.0288761)
(0.952467 -0.00258353 -0.000165424)
(0.952403 -0.00213906 0.000368101)
(0.950858 -0.00180192 0.00123082)
(0.947244 -0.00155079 0.00259182)
(0.939383 -0.00137199 0.00522872)
(0.923415 -0.00125568 0.0119301)
(0.937162 -0.00119517 0.028878)
(0.953091 -0.00253108 -0.000145471)
(0.952838 -0.00198296 0.000386791)
(0.951162 -0.00162283 0.00124425)
(0.947455 -0.00138354 0.00260141)
(0.939524 -0.00122547 0.00523603)
(0.923498 -0.00112691 0.0119363)
(0.937195 -0.00107646 0.0288839)
(0.953836 -0.00231147 -6.92211e-05)
(0.953311 -0.00172633 0.00045465)
(0.951458 -0.00138026 0.00129032)
(0.947641 -0.00117201 0.0026303)
(0.939641 -0.00104436 0.00525406)
(0.923565 -0.000968328 0.0119484)
(0.93722 -0.000930007 0.0288935)
(0.954616 -0.0019738 6.77561e-05)
(0.953769 -0.00141896 0.000570572)
(0.951717 -0.00111826 0.00136537)
(0.947791 -0.000951254 0.0026751)
(0.939729 -0.000855201 0.00528042)
(0.923613 -0.000800119 0.0119647)
(0.937239 -0.0007726 0.0289056)
(0.0649222 -0.00288736 -0.000532497)
(0.0655558 -0.00266528 0.00118822)
(0.0646124 -0.00230963 0.00350401)
(0.0622684 -0.00199435 0.00675197)
(0.0584969 -0.00175624 0.0122868)
(0.0548156 -0.0015997 0.0239857)
(0.0665801 -0.0015198 0.0489239)
(0.0650602 -0.00305747 -0.00106589)
(0.065893 -0.00268268 0.000810639)
(0.0649663 -0.00229381 0.00329746)
(0.0625577 -0.00197002 0.00664941)
(0.0587042 -0.0017299 0.0122407)
(0.0549417 -0.00157281 0.0239684)
(0.0666302 -0.00149262 0.0489194)
(0.0655433 -0.00305096 -0.00120976)
(0.0663223 -0.00252557 0.000691645)
(0.065325 -0.00212141 0.00322629)
(0.0628327 -0.00181968 0.00661489)
(0.0588974 -0.00160544 0.0122285)
(0.0550587 -0.00146763 0.0239685)
(0.0666767 -0.0013975 0.0489255)
(0.0662914 -0.0028694 -0.00111229)
(0.0668253 -0.00223922 0.00076499)
(0.0656722 -0.00184388 0.00327304)
(0.0630741 -0.00158416 0.00664633)
(0.0590594 -0.0014119 0.0122518)
(0.055155 -0.0013046 0.0239877)
(0.0667149 -0.00125047 0.0489434)
(0.0672018 -0.00249801 -0.000815799)
(0.0673503 -0.00184355 0.00100261)
(0.0659801 -0.00149966 0.00342303)
(0.0632651 -0.00130212 0.00673653)
(0.0591798 -0.00118114 0.0123069)
(0.0552247 -0.00110863 0.024024)
(0.0667423 -0.0010723 0.0489718)
(0.0681756 -0.00197579 -0.000271341)
(0.0678257 -0.00139596 0.00141516)
(0.0662137 -0.00114574 0.00366848)
(0.0633929 -0.00101946 0.00687612)
(0.0592553 -0.00094742 0.0123869)
(0.0552675 -0.000905293 0.024073)
(0.0667592 -0.000883971 0.0490073)
(-0.0112639 -0.00411025 -0.00295867)
(-0.00955161 -0.00344178 0.00109415)
(-0.00993442 -0.00269934 0.00470757)
(-0.0109236 -0.00218374 0.00866691)
(-0.0117213 -0.00184801 0.0140424)
(-0.0103629 -0.0016444 0.0222717)
(-0.00204289 -0.00154607 0.0337278)
(-0.0110585 -0.00350881 -0.00416177)
(-0.00895105 -0.00305487 0.000377684)
(-0.00937679 -0.00250549 0.00436064)
(-0.0105196 -0.00208031 0.00851136)
(-0.0114543 -0.00178445 0.0139784)
(-0.010208 -0.00159886 0.0222512)
(-0.00198249 -0.00150763 0.0337258)
(-0.0106114 -0.00303631 -0.00438164)
(-0.00846915 -0.00257362 0.000190049)
(-0.00895663 -0.0021563 0.00425575)
(-0.0102021 -0.00183814 0.00846538)
(-0.0112363 -0.00161281 0.013966)
(-0.0100782 -0.00146872 0.0222562)
(-0.00193114 -0.00139695 0.0337388)
(-0.00987311 -0.00254238 -0.00409464)
(-0.00801223 -0.0020358 0.000350712)
(-0.00863877 -0.00172539 0.00434453)
(-0.00997572 -0.00151699 0.00852096)
(-0.0110816 -0.00137308 0.0140059)
(-0.0099851 -0.00128047 0.0222886)
(-0.00189395 -0.00123385 0.0337684)
(-0.00893885 -0.00184934 -0.00339767)
(-0.00760965 -0.00139644 0.000803483)
(-0.00843589 -0.0012416 0.00460052)
(-0.0098494 -0.00115977 0.00866597)
(-0.0109969 -0.00110265 0.0140923)
(-0.00993306 -0.00106317 0.0223454)
(-0.00187274 -0.00104225 0.0338126)
(-0.00797039 -0.000852598 -0.00208457)
(-0.00738299 -0.000683994 0.00160497)
(-0.00840094 -0.000767208 0.00502232)
(-0.00983644 -0.000821846 0.00888825)
(-0.0109826 -0.000842288 0.0142155)
(-0.00991998 -0.000846445 0.0224199)
(-0.00186628 -0.000845888 0.0338666)
(0.969632 -0.00640285 -0.000239221)
(0.969414 -0.00678105 -0.000219095)
(0.968949 -0.00744668 -0.000178257)
(0.968075 -0.00829158 -0.000113484)
(0.966658 -0.00913396 -2.81424e-05)
(0.964659 -0.0096924 4.87341e-05)
(0.962305 -0.0096245 3.5267e-05)
(0.969451 -0.00567383 -0.000211597)
(0.968984 -0.00592956 -0.000202607)
(0.968344 -0.00636815 -0.000181713)
(0.967427 -0.00689999 -0.000149772)
(0.966158 -0.00738563 -0.000111905)
(0.964549 -0.00763576 -8.56288e-05)
(0.962772 -0.00745083 -0.000107092)
(0.969332 -0.00478978 -0.000183922)
(0.968709 -0.0049518 -0.0001809)
(0.96797 -0.00522237 -0.000169636)
(0.967057 -0.00553359 -0.000151961)
(0.965922 -0.00578536 -0.000131767)
(0.964594 -0.00585613 -0.000117509)
(0.963188 -0.00563567 -0.000122424)
(0.969259 -0.00382532 -0.000159327)
(0.968542 -0.00392153 -0.000159266)
(0.967755 -0.00407798 -0.000152167)
(0.966863 -0.00424705 -0.000139904)
(0.965835 -0.00436118 -0.000124917)
(0.964699 -0.00434604 -0.000110696)
(0.963528 -0.00414334 -0.000101051)
(0.969217 -0.00282555 -0.000140252)
(0.968447 -0.0028788 -0.000141528)
(0.967639 -0.00296329 -0.000136042)
(0.966772 -0.00304803 -0.000125406)
(0.965822 -0.00309008 -0.000111191)
(0.96481 -0.00304629 -9.45114e-05)
(0.963783 -0.00288682 -7.57252e-05)
(0.969193 -0.00178419 -0.000130165)
(0.968395 -0.0018111 -0.00013201)
(0.967579 -0.00185263 -0.000127038)
(0.966731 -0.00189075 -0.000116682)
(0.965832 -0.00190147 -0.000102015)
(0.964896 -0.00186212 -8.3081e-05)
(0.963953 -0.00175849 -5.91079e-05)
(0.96918 -0.00071784 -0.000131324)
(0.96837 -0.000726804 -0.00013384)
(0.967553 -0.000740902 -0.000129154)
(0.966718 -0.000753373 -0.000118832)
(0.965845 -0.000754786 -0.000103688)
(0.964947 -0.000736923 -8.33244e-05)
(0.964045 -0.000694896 -5.66196e-05)
(0.0851671 -0.00746684 -0.000778536)
(0.0849491 -0.00792321 -0.000725641)
(0.0844476 -0.00875 -0.000617102)
(0.0834697 -0.00983436 -0.000439794)
(0.0818225 -0.0109699 -0.000196266)
(0.0793874 -0.0118118 3.87369e-05)
(0.0763528 -0.0118476 -2.99972e-05)