/*--------------------------------*- C++ -*----------------------------------*\
  =========                 |
  \\      /  F ield         | OpenFOAM: The Open Source CFD Toolbox
   \\    /   O peration     | Website:  https://openfoam.org
    \\  /    A nd           | Version:  7
     \\/     M anipulation  |
\*---------------------------------------------------------------------------*/
FoamFile
{
    version     2.0;
    format      ascii;
    class       volScalarField;
    location    "0.5";
    object      p;
}
// * * * * * * * * * * * * * * * * * * * * * * * * * * * * * * * * * * * * * //

dimensions      [0 2 -2 0 0 0 0];

internalField   nonuniform List<scalar> 
7784
(
-6.76647e-08
0.0140115
0.0482998
0.0686642
0.0821471
0.0907225
0.094807
-0.00273422
0.0106096
0.0432199
0.0623554
0.0749741
0.0831141
0.0874137
-0.00511473
0.00762413
0.0393494
0.0577955
0.0700221
0.0781335
0.0828162
-0.00648355
0.00553067
0.0366017
0.0546777
0.0668029
0.0750633
0.0802929
-0.00715078
0.00400382
0.0344263
0.0521367
0.0643334
0.0729861
0.0787898
-0.00771568
0.00244912
0.032003
0.0492207
0.0613561
0.069957
0.0756936
-0.00890975
0.000285002
0.0286081
0.0447234
0.0552437
0.0605617
0.0614774
0.0292636
0.0390501
0.0574761
0.0727578
0.084355
0.0920784
0.0957311
0.0255019
0.0346716
0.0519176
0.066043
0.0766933
0.0838613
0.0876938
0.0229939
0.0315451
0.0480295
0.061583
0.0719678
0.0791
0.0832673
0.0218439
0.0296079
0.0455398
0.0590284
0.0699816
0.0775021
0.0819165
0.0215911
0.0284035
0.0439186
0.057831
0.0694897
0.0785797
0.0831849
0.0215591
0.027265
0.0424967
0.0565459
0.0704841
0.0835273
0.0891477
0.0208718
0.02529
0.0394721
0.0536706
0.0702609
0.0898991
0.0937061
0.0492122
0.055685
0.0667753
0.0778595
0.0871235
0.093532
0.0965
0.0451476
0.0510014
0.0610574
0.0709883
0.0791584
0.0848189
0.0878674
0.0427411
0.0478979
0.0572044
0.0665838
0.074446
0.0799643
0.0830821
0.0419876
0.0461675
0.0548654
0.0642537
0.0728518
0.0792954
0.0820484
0.0423934
0.0452627
0.0534458
0.0636757
0.0755926
0.0845193
0.0826448
0.0432117
0.0443647
0.0521044
0.0650055
0.0818945
0.104118
0.103065
0.0433724
0.04235
0.0496254
0.0630736
0.0903453
0.153676
0.209808
0.0948824
0.0913001
0.0846584
0.0756754
0.0649114
0.0527358
0.0885546
0.0862829
0.0808871
0.0729841
0.0631259
0.0516858
0.0851876
0.083886
0.0791022
0.0715954
0.0620593
0.0509304
0.0845148
0.0841088
0.079316
0.0714876
0.0616965
0.0504653
0.0866016
0.0867848
0.0811202
0.0722962
0.0617826
0.0501885
0.0910285
0.0913357
0.0837694
0.0733268
0.0618104
0.0494748
0.0940481
0.0950521
0.0854011
0.0734648
0.0609795
0.0484157
0.0955625
0.0918428
0.0852014
0.0764122
0.0660054
0.0544631
0.0887483
0.0864945
0.0812002
0.0735785
0.0641418
0.053388
0.0856393
0.0843267
0.0795266
0.072255
0.0631053
0.052648
0.0865784
0.0856623
0.0802293
0.072392
0.0628392
0.0522126
0.0922773
0.0904063
0.0831699
0.0736499
0.0630895
0.0519615
0.106173
0.0993107
0.0874535
0.0753203
0.0633316
0.0512759
0.12918
0.10951
0.0911373
0.0761011
0.0625427
0.0499816
0.0959614
0.0921039
0.0855708
0.0771323
0.0674899
0.0570354
0.0887821
0.0865938
0.0815184
0.0743047
0.0656666
0.0560123
0.0856775
0.0844775
0.0799109
0.0730343
0.0647046
0.0553354
0.0875731
0.086197
0.080879
0.0733157
0.0645729
0.0549892
0.0974866
0.0936663
0.0847256
0.0750315
0.0650259
0.0548087
0.127405
0.10954
0.0913962
0.0775722
0.0655707
0.0542301
0.211364
0.13198
0.097697
0.0792183
0.0648929
0.0527153
0.0391556
0.023703
0.00535575
-0.0178849
-0.0489656
-0.086789
-0.130166
0.0386736
0.0236177
0.00553805
-0.0175537
-0.0489931
-0.0887001
-0.134043
0.0382016
0.0232988
0.00532881
-0.017762
-0.0494583
-0.0898622
-0.135759
0.0376462
0.0227891
0.00483228
-0.0182963
-0.0501256
-0.090764
-0.136794
0.0370854
0.0221041
0.00409634
-0.0190746
-0.0509778
-0.0917243
-0.137796
0.0362522
0.0211709
0.00311939
-0.0200815
-0.0520323
-0.0928435
-0.138963
0.035176
0.0199818
0.00188987
-0.021319
-0.0532886
-0.0941449
-0.14033
0.0418822
0.0280371
0.0124722
-0.00558125
-0.0270698
-0.0511999
-0.0575011
0.0414172
0.0279938
0.0126987
-0.00522931
-0.0268542
-0.0518265
-0.0583561
0.0409675
0.0276924
0.012513
-0.00538304
-0.0271296
-0.0524885
-0.0591534
0.0404039
0.0271821
0.0120205
-0.00588905
-0.0277071
-0.0532255
-0.0599631
0.0398402
0.0264627
0.0112547
-0.00667405
-0.0285312
-0.0541326
-0.0609069
0.0389046
0.0254059
0.0101947
-0.00771985
-0.0295936
-0.0552491
-0.0620717
0.0375012
0.0239641
0.00882835
-0.00902209
-0.0308789
-0.0565713
-0.0634561
0.0460057
0.0344735
0.0225373
0.0105403
-0.000523191
-0.00710104
0.00202086
0.0455976
0.0344727
0.0227923
0.0109089
-0.000189715
-0.0068989
0.0026569
0.045178
0.0342154
0.0226475
0.0108212
-0.000304608
-0.00709917
0.00258571
0.0447463
0.0337542
0.0221833
0.0103593
-0.000779585
-0.00762456
0.0020687
0.044274
0.0330429
0.0214037
0.00957943
-0.00155928
-0.00844892
0.00120968
0.0432984
0.0318478
0.0202519
0.00850292
-0.00261807
-0.00955836
1.6213e-05
0.0410743
0.0299285
0.0187318
0.0071557
-0.00392168
-0.0109192
-0.00146735
-0.0117985
-0.00326825
0.0242593
0.0384829
0.0441796
0.0371408
0.0157477
-0.0154582
-0.0064819
0.0216789
0.0375494
0.047743
0.0526449
0.0530793
-0.0205025
-0.0106866
0.0184531
0.0354138
0.0474362
0.0561004
0.0622869
-0.0265047
-0.0157831
0.0141465
0.0314658
0.0435864
0.0525129
0.0589975
-0.0327925
-0.0212715
0.00921435
0.0267219
0.0386079
0.047152
0.0531142
-0.0386946
-0.0265501
0.00433827
0.0220279
0.0337426
0.0419739
0.0475351
0.0181456
0.0218273
0.0347555
0.0464077
0.0578891
0.0619153
0.00648983
0.014508
0.0187487
0.0327027
0.0466647
0.0633226
0.0833706
0.0867431
0.00919055
0.0144855
0.0292474
0.0432395
0.0575593
0.0720648
0.0797891
0.00278832
0.00913509
0.0243276
0.0377509
0.0496788
0.0598591
0.0662798
-0.00387506
0.00337057
0.018813
0.0320239
0.0426273
0.0508814
0.0563443
-0.0100626
-0.00210224
0.0136347
0.026571
0.0367077
0.0441409
0.0490765
0.0408617
0.0383344
0.0433626
0.0487581
0.0665137
0.123436
0.176443
0.0373156
0.0360365
0.0432716
0.0558191
0.083331
0.148583
0.214887
0.0315667
0.0321593
0.0398935
0.0523276
0.0696337
0.0956847
0.10482
0.0245219
0.0267404
0.0345959
0.0453547
0.0567412
0.0676536
0.0697581
0.017269
0.0207991
0.0290041
0.0383403
0.0477555
0.0548006
0.0583055
0.0106411
0.0151533
0.0237558
0.0326698
0.0407822
0.0469179
0.0507314
0.0846194
0.0924753
0.0832951
0.0712719
0.0589314
0.0466553
0.0876145
0.0887803
0.0791524
0.0675397
0.0556976
0.0439412
0.0795802
0.0796981
0.0720534
0.0620645
0.0514273
0.0405368
0.0687671
0.0692117
0.0638587
0.0559058
0.0467399
0.0368996
0.0593315
0.0599762
0.0562875
0.0500516
0.0422574
0.033435
0.0521228
0.05288
0.0501892
0.0451601
0.0384291
0.0303708
0.130187
0.109747
0.0896333
0.0738346
0.060179
0.0476159
0.123997
0.10309
0.0846088
0.0697189
0.0566389
0.0445418
0.0973218
0.0881165
0.0755345
0.0635422
0.0520658
0.0409776
0.0765117
0.0734391
0.0657879
0.0567688
0.0471588
0.0373032
0.0627345
0.0619479
0.0572476
0.0505362
0.0425867
0.0339264
0.0536817
0.0536786
0.0506329
0.0454997
0.0388458
0.0311603
0.290977
0.137051
0.0961967
0.0764927
0.0615082
0.0489408
0.206396
0.124962
0.0908146
0.0720216
0.0576015
0.0454196
0.124561
0.0989905
0.0794617
0.0651318
0.0527648
0.0416816
0.0854211
0.0781473
0.0678057
0.0577078
0.0476569
0.0379799
0.0662716
0.0640235
0.0582156
0.0510738
0.0430249
0.0347229
0.0553751
0.0547087
0.0512081
0.0460112
0.039519
0.0323764
0.0339919
0.0184958
0.000394738
-0.0227685
-0.0547208
-0.0956035
-0.141861
0.0318479
0.0165651
-0.0013606
-0.0243916
-0.0562791
-0.097163
-0.143486
0.0291375
0.014339
-0.00327686
-0.0261085
-0.0578909
-0.0987495
-0.145122
0.0262722
0.0120166
-0.00522595
-0.0278231
-0.0594755
-0.100287
-0.146687
0.0235083
0.00977217
-0.00709043
-0.0294477
-0.0609597
-0.101707
-0.148113
0.020783
0.00768661
-0.00879997
-0.0309261
-0.0622914
-0.102959
-0.149351
0.035949
0.0221148
0.00716064
-0.0105455
-0.0323476
-0.058057
-0.065008
0.0333568
0.0198814
0.0052649
-0.0122257
-0.0339331
-0.0596363
-0.0666449
0.0305457
0.0175631
0.00330143
-0.0139584
-0.0355502
-0.0612258
-0.0682744
0.0276967
0.0152855
0.00139494
-0.0156419
-0.0371138
-0.0627446
-0.0698116
0.0250618
0.0132378
-0.00033987
-0.0171909
-0.0385523
-0.0641266
-0.0711908
0.0230342
0.0115585
-0.00184948
-0.0185692
-0.0398269
-0.0653309
-0.0723706
0.0380561
0.0271761
0.0168463
0.0055981
-0.00541342
-0.0124634
-0.00315395
0.0350702
0.0242579
0.0147591
0.00388451
-0.00701591
-0.0140974
-0.00492196
0.0321918
0.0218257
0.0127492
0.00215308
-0.00863159
-0.0157207
-0.00664998
0.0294274
0.0196564
0.0109231
0.000520512
-0.0101672
-0.0172435
-0.0082383
0.026962
0.0180325
0.00939169
-0.000931859
-0.0115526
-0.0185997
-0.00961903
0.0254716
0.0172512
0.00820052
-0.00219852
-0.0127701
-0.0197632
-0.0107652
-0.0436404
-0.0311191
5.11023e-05
0.0178344
0.0296043
0.0377346
0.0431794
-0.0473478
-0.0346772
-0.00333662
0.014513
0.0262157
0.0342125
0.0394383
-0.0498587
-0.0370883
-0.00563904
0.0122465
0.023911
0.0318143
0.0369069
-0.0511469
-0.0382886
-0.00675008
0.0111891
0.022856
0.030712
0.0357256
-0.0512045
-0.0382586
-0.00659854
0.0114303
0.023125
0.0309463
0.0358713
-0.050121
-0.0370462
-0.00508778
0.0131278
0.0248781
0.032651
0.0374391
-0.0484127
-0.0351541
-0.00229601
0.0162737
0.028093
0.0357945
0.0403879
-0.0152078
-0.00678896
0.00921143
0.0221293
0.0320775
0.039432
0.0441463
-0.0190233
-0.0104108
0.00575933
0.0186871
0.0284494
0.0354806
0.04006
-0.0215968
-0.0128472
0.00343952
0.0163865
0.0260873
0.0330177
0.0375629
-0.0228996
-0.0140379
0.002342
0.015345
0.0250546
0.0319645
0.0364977
-0.0228942
-0.0139424
0.00254255
0.0156261
0.0253682
0.0322605
0.0367332
-0.0215189
-0.0124747
0.00419272
0.0174133
0.0271977
0.0340435
0.0383856
-0.0187488
-0.00963074
0.00736843
0.0207913
0.030625
0.0373882
0.0415159
0.00518372
0.0103365
0.0193019
0.0281812
0.0359006
0.0420258
0.045396
0.00116039
0.0066122
0.0158019
0.0246885
0.0321333
0.03774
0.0413203
-0.001574
0.00409354
0.0134443
0.0223755
0.0297651
0.0353053
0.0390599
-0.00298282
0.00285637
0.0123356
0.0213482
0.0287777
0.0343603
0.038173
-0.00300203
0.00295612
0.0125505
0.0216521
0.0291319
0.0347234
0.0384722
-0.00150503
0.00453888
0.014263
0.0234697
0.0309857
0.0365374
0.0401654
0.00165794
0.00772736
0.0175783
0.0268962
0.0344384
0.0398972
0.0432952
0.0470376
0.0477233
0.0456376
0.0413941
0.0353738
0.0277005
0.0427148
0.0434465
0.0418315
0.0381999
0.03275
0.0255389
0.039865
0.0405907
0.0392277
0.0359654
0.0309036
0.0240216
0.0384987
0.0391652
0.0378744
0.0347539
0.0298715
0.0231393
0.0384772
0.0390083
0.0376391
0.0344851
0.029596
0.0228605
0.0398211
0.0401056
0.0385018
0.0351426
0.0300688
0.0231734
0.0424608
0.0423701
0.040377
0.0366446
0.0312266
0.024032
0.0477914
0.0480654
0.0458514
0.0417364
0.0360426
0.0290073
0.0430296
0.0435518
0.0419721
0.0385999
0.0336204
0.0271426
0.0402705
0.0408979
0.0396233
0.0366291
0.0320564
0.0258957
0.0390669
0.0396883
0.0385046
0.0356586
0.0312313
0.0251811
0.0391595
0.0396636
0.0384115
0.0355239
0.0310684
0.0249887
0.0405831
0.0408449
0.0393564
0.0362509
0.0315945
0.0253392
0.0433766
0.0432454
0.0413395
0.0378331
0.0328073
0.0262304
0.0484566
0.0483454
0.0461421
0.0424129
0.037341
0.0311054
0.043749
0.0440409
0.0425596
0.0395888
0.0352072
0.0299105
0.0413572
0.041843
0.0406719
0.0380045
0.0341341
0.0290525
0.0403831
0.040884
0.0397947
0.0373269
0.0335531
0.0284972
0.0405957
0.0409748
0.0398422
0.0373225
0.0334861
0.0283588
0.0420275
0.0421788
0.040814
0.0380649
0.0340164
0.0287048
0.0447893
0.0445321
0.0427444
0.039592
0.0351742
0.0295441
0.0181218
0.00572307
-0.0103596
-0.0322334
-0.0634356
-0.104008
-0.150371
0.0162693
0.00424266
-0.0115716
-0.0332536
-0.0643168
-0.104798
-0.15113
0.0150022
0.00320921
-0.0124219
-0.0339561
-0.0648945
-0.10528
-0.151588
0.0142449
0.00258177
-0.0129279
-0.0343386
-0.0651397
-0.105388
-0.151696
0.0139714
0.00233925
-0.0131091
-0.0344105
-0.06502
-0.104974
-0.151187
0.0141625
0.00245998
-0.0130022
-0.0342266
-0.0645434
-0.103894
-0.149301
0.0147786
0.00289768
-0.0126922
-0.0340077
-0.0639542
-0.101349
-0.144953
0.020443
0.00982298
-0.00326889
-0.0197964
-0.0409193
-0.0663334
-0.0733324
0.0189581
0.0086316
-0.0043164
-0.0207288
-0.0417512
-0.0670848
-0.0740452
0.0179422
0.00778128
-0.00505085
-0.0213672
-0.0422999
-0.067553
-0.0744819
0.0173085
0.00724221
-0.00549795
-0.0217234
-0.0425546
-0.0676984
-0.0746035
0.0170941
0.00704004
-0.00565838
-0.021808
-0.0425104
-0.0674528
-0.0743063
0.0173094
0.00717356
-0.00555137
-0.0216606
-0.042213
-0.0668024
-0.073399
0.01794
0.0076141
-0.00523224
-0.0213873
-0.0417649
-0.0655155
-0.0719099
0.0238074
0.0159885
0.00689977
-0.00338426
-0.0138245
-0.0207244
-0.0116772
0.0233974
0.0153643
0.00607051
-0.00422854
-0.0146122
-0.0214432
-0.0123506
0.0226959
0.0147431
0.0054703
-0.00480032
-0.0151385
-0.0219147
-0.0127925
0.0221162
0.0142686
0.00507237
-0.00513807
-0.0154176
-0.0221363
-0.013007
0.0219141
0.0140804
0.00491871
-0.00524862
-0.0154601
-0.0221043
-0.0130047
0.022114
0.014201
0.00501086
-0.00514453
-0.0152925
-0.0218395
-0.0127991
0.0226997
0.0146123
0.0053213
-0.0048617
-0.0149322
-0.0213462
-0.0127957
0.0617427
0.066386
0.0738986
0.0820415
0.0892091
0.0942203
0.0964327
0.057969
0.0618859
0.068376
0.0753272
0.0812627
0.085271
0.0873961
0.0559778
0.0590056
0.0646993
0.0711117
0.0764331
0.0795603
0.0810888
0.0558995
0.0575594
0.062403
0.068533
0.0743627
0.0755255
0.0728509
0.0572903
0.0569089
0.0607165
0.0666037
0.0725606
0.0743378
0.0490825
0.0593061
0.0559934
0.058257
0.0637548
0.0751083
0.0863003
0.0190786
0.0605748
0.053374
0.0521556
0.0539556
0.071091
0.128688
0.171163
0.068958
0.0727568
0.0783129
0.0844565
0.0899975
0.0938701
0.0954387
0.0658046
0.0687416
0.073319
0.0783966
0.0828908
0.0859625
0.0875466
0.0644403
0.0663395
0.0701905
0.0746934
0.0788802
0.0815084
0.0829053
0.064935
0.0653141
0.0683725
0.0730169
0.0779873
0.0803785
0.0802809
0.066717
0.0651312
0.0674084
0.0725195
0.0798067
0.0857606
0.0788564
0.0689648
0.0648922
0.0663663
0.0728167
0.0868739
0.110095
0.0970295
0.070388
0.0633217
0.0632706
0.0706268
0.0955417
0.160855
0.214466
0.0726698
0.0758987
0.0802142
0.0849299
0.0891898
0.0921348
0.0932091
0.0700149
0.0724644
0.07593
0.0797856
0.0832468
0.0856533
0.0868433
0.0690203
0.0704835
0.0732576
0.0767109
0.0799198
0.0821672
0.0834537
0.0695017
0.0697113
0.0719289
0.0756193
0.0791192
0.0816907
0.0827467
0.0710978
0.0697105
0.0713065
0.0753733
0.081417
0.0854128
0.0850658
0.0730369
0.0697744
0.0707989
0.0758556
0.0854803
0.0981522
0.0943775
0.0742024
0.068928
0.0691795
0.0749686
0.0890997
0.115297
0.110404
0.0737541
0.0766081
0.0800876
0.0837561
0.0870269
0.0892506
0.0899861
0.0715368
0.0737732
0.0765723
0.0795743
0.0822781
0.0841654
0.0850526
0.0706705
0.0721164
0.0743546
0.0769729
0.0794792
0.0812923
0.0823552
0.0709889
0.0714606
0.0733103
0.0757252
0.0785218
0.0805503
0.0817032
0.0721327
0.0713828
0.0726445
0.0755241
0.079393
0.0819842
0.0828727
0.0734864
0.0713835
0.0721279
0.0754679
0.0811282
0.0862228
0.0854448
0.0741652
0.0707904
0.0708847
0.0743735
0.0813371
0.0904973
0.0813553
0.0729999
0.0756154
0.0785214
0.0814333
0.0839706
0.0856753
0.0862139
0.07119
0.0733524
0.0757427
0.0781641
0.0803069
0.0818174
0.0825104
0.0703877
0.0719586
0.0738959
0.0760042
0.0779706
0.0794292
0.0802932
0.0704908
0.071312
0.0728497
0.0748057
0.076826
0.078369
0.0794021
0.0711205
0.0710834
0.0722535
0.0742791
0.0766233
0.0783801
0.0794244
0.0718496
0.0708687
0.0715967
0.0737707
0.0769379
0.0789854
0.0795219
0.0720161
0.0701763
0.0704359
0.0725376
0.076015
0.078606
0.0764972
0.0711064
0.0735643
0.0760805
0.0784654
0.080492
0.0818556
0.0823147
0.0696747
0.0718173
0.0739632
0.0760038
0.0777668
0.0790226
0.0796194
0.0689227
0.0706558
0.0724549
0.0742478
0.075864
0.0770857
0.0778354
0.0687948
0.0700036
0.071474
0.0731046
0.0746809
0.0759242
0.0768254
0.0690379
0.0696287
0.0707929
0.0723329
0.0739771
0.0752618
0.0762483
0.0692474
0.0692227
0.0701559
0.0715592
0.0733424
0.0746097
0.0754387
0.0689796
0.068399
0.0689873
0.0704833
0.0720771
0.0731202
0.0731277
0.0956069
0.091792
0.0856009
0.0778092
0.0691036
0.0599359
0.0882964
0.0863521
0.0816953
0.075133
0.0674161
0.0590291
0.0846082
0.0841711
0.0801701
0.0739811
0.0665639
0.0584493
0.0842699
0.0856091
0.0811957
0.0743902
0.0665427
0.0582369
0.0885975
0.0922063
0.0851436
0.0762799
0.0671469
0.0581913
0.122061
0.109293
0.0923333
0.0793249
0.0680302
0.0581096
0.285837
0.139801
0.100671
0.0824659
0.068734
0.0576677
0.0943693
0.0907286
0.0850786
0.07813
0.0705268
0.0627607
0.0879023
0.0858666
0.0815795
0.0757529
0.0690565
0.0620109
0.0850141
0.0840404
0.0802641
0.0747607
0.0683343
0.0615563
0.0861387
0.0856843
0.0813291
0.0752109
0.0683789
0.0614644
0.0938366
0.0922847
0.0851439
0.0770584
0.0689984
0.0613954
0.122797
0.1075
0.0918554
0.080002
0.0699604
0.061498
0.207245
0.131273
0.0996108
0.0830664
0.0709793
0.0612194
0.0920588
0.0887842
0.0838722
0.0779367
0.0715481
0.0651977
0.0867343
0.0846968
0.0809073
0.0759327
0.0703399
0.0646348
0.0843912
0.0830848
0.0797298
0.0750604
0.0697334
0.0642824
0.0853136
0.0842174
0.080462
0.0753619
0.0697396
0.0641698
0.0907098
0.0887746
0.0832344
0.0767673
0.0702211
0.0641505
0.104885
0.0979517
0.0879237
0.0789591
0.0709169
0.0642112
0.132583
0.110215
0.092955
0.0811666
0.0717738
0.0638377
0.0889177
0.0861579
0.0821045
0.0772595
0.0721122
0.0671194
0.0847218
0.0828771
0.0797133
0.0756587
0.071184
0.0667456
0.0826827
0.0813987
0.078632
0.0748815
0.0706727
0.0664855
0.0828413
0.0818087
0.0789067
0.0749502
0.0705842
0.0663036
0.0854576
0.0842431
0.0805004
0.0757721
0.0708405
0.0662613
0.0911743
0.0887758
0.0831743
0.0771009
0.0711986
0.0662331
0.0994329
0.0943033
0.0859069
0.0784155
0.0717014
0.0657695
0.0853427
0.0831692
0.0800007
0.0762347
0.0722781
0.0685231
0.0821522
0.080652
0.0781678
0.0750283
0.0716205
0.0683202
0.0803846
0.079325
0.0771972
0.0743474
0.0711823
0.0680874
0.0799842
0.07919
0.0771005
0.0742118
0.0710108
0.0679199
0.0808338
0.0801703
0.0777778
0.0745287
0.071034
0.0677913
0.0827382
0.082079
0.0789959
0.0751182
0.0711117
0.067635
0.085143
0.0843762
0.080309
0.0757549
0.0711783
0.0670843
0.0817073
0.080122
0.0777909
0.0750221
0.0721467
0.0694688
0.0793799
0.0782846
0.0764654
0.0741749
0.0717191
0.0694011
0.0779098
0.0771563
0.0756403
0.0736081
0.0713702
0.0692424
0.0772372
0.0767278
0.0753269
0.0733474
0.0711437
0.0690545
0.0771829
0.0768847
0.0754203
0.0732935
0.0709626
0.0688296
0.0774583
0.0773983
0.0756571
0.0733114
0.0707647
0.0685143
0.0776058
0.0779315
0.0759967
0.0732791
0.070342
0.0677802
0.0506753
0.0415836
0.033102
0.025977
0.0217207
0.0236387
0.0379604
0.0503763
0.0416606
0.0334206
0.0264121
0.0221778
0.0241073
0.0387088
0.049992
0.0414701
0.0333444
0.026404
0.0221874
0.0241204
0.0388312
0.0497333
0.0410926
0.0329396
0.0260139
0.0218005
0.0237205
0.0384409
0.0495026
0.040477
0.0321905
0.0252856
0.0210755
0.0229589
0.0376236
0.0490192
0.0393549
0.0310334
0.0242422
0.0200477
0.0218701
0.0364094
0.0478648
0.037762
0.0296342
0.0229505
0.0187683
0.0205125
0.0348633
0.0552657
0.048371
0.0426673
0.0389265
0.038411
0.0433041
0.0562683
0.0550406
0.0485366
0.0430582
0.0394271
0.0389492
0.0438552
0.0569773
0.0547991
0.0484352
0.0430528
0.0394871
0.0390395
0.0439604
0.0571479
0.054614
0.0481364
0.0427163
0.0391611
0.0387201
0.0436339
0.0568079
0.0544596
0.0475708
0.0420214
0.0384864
0.038049
0.0429237
0.0560138
0.0539941
0.0464299
0.0408753
0.0374839
0.0370643
0.0418685
0.0547983
0.052216
0.0446011
0.0394827
0.0362384
0.035826
0.0405336
0.0532331
0.0593152
0.0542924
0.0506699
0.0490955
0.0504443
0.0560217
0.0667217
0.0592367
0.0545506
0.0511229
0.0496431
0.0510263
0.0566104
0.0674082
0.0590819
0.0545236
0.0511799
0.0497577
0.0511698
0.0567624
0.0675936
0.0589327
0.0542849
0.0509049
0.0494904
0.0509074
0.0564862
0.0672834
0.0588025
0.0537761
0.0502766
0.0488779
0.0502959
0.0558256
0.0665191
0.0583641
0.0526956
0.0491957
0.0479412
0.0493725
0.0548196
0.0653337
0.0567361
0.0509531
0.0478763
0.0467695
0.0482005
0.053536
0.0638003
0.0626726
0.0591636
0.0570471
0.0568081
0.059036
0.0644086
0.0731533
0.0627196
0.0594965
0.0575422
0.0573804
0.0596316
0.0650021
0.0738069
0.062635
0.0595294
0.0576498
0.0575365
0.0598085
0.0651782
0.073994
0.0625004
0.0593391
0.0574319
0.0573247
0.0595961
0.064945
0.073714
0.0623667
0.0588935
0.056881
0.056784
0.0590486
0.0643413
0.0729991
0.0619692
0.0579306
0.0559102
0.0559383
0.0582015
0.0634056
0.0718817
0.0606112
0.0564086
0.0547254
0.0548714
0.057118
0.0622042
0.0704329
0.0653112
0.0630062
0.0619693
0.0625573
0.0651238
0.0700184
0.0772259
0.0654577
0.0633899
0.0624837
0.063131
0.0657115
0.0705972
0.0778416
0.0654219
0.0634673
0.062629
0.0633153
0.0659087
0.0707868
0.0780292
0.0653001
0.063317
0.062464
0.0631533
0.0657423
0.070596
0.0777874
0.0651413
0.0629316
0.0619962
0.0626866
0.0652634
0.070059
0.0771434
0.0647743
0.0621099
0.0611588
0.0619411
0.0645045
0.069213
0.0761289
0.0637037
0.0608559
0.0601348
0.0609906
0.063526
0.0681202
0.0748105
0.0672987
0.0659478
0.0656948
0.0667842
0.0694253
0.0738033
0.0798243
0.0675181
0.0663558
0.0662054
0.0673406
0.0699901
0.0743561
0.080401
0.067524
0.0664637
0.0663735
0.0675411
0.070198
0.0745541
0.0805918
0.0674008
0.0663427
0.0662501
0.0674227
0.070075
0.0744062
0.0803963
0.0671904
0.0660032
0.0658597
0.067029
0.0696658
0.0739434
0.0798399
0.0668095
0.0653196
0.0651613
0.0663854
0.0690007
0.0732
0.0789529
0.0660126
0.0643299
0.0642848
0.0655473
0.0681331
0.0722321
0.0777958
0.0586522
0.0484095
0.0398089
0.0176715
-0.0301102
-0.174079
-1.33204
0.0551159
0.0472915
0.0454542
0.0472249
0.0623353
0.120065
0.22165
0.0487454
0.0443765
0.0461745
0.0520886
0.0642774
0.0791972
0.0591997
0.0408082
0.0393281
0.0425684
0.0482905
0.0557939
0.0593062
0.046882
0.0327092
0.033383
0.0375443
0.0432153
0.0487937
0.0527567
0.0521892
0.0254448
0.0276392
0.0325336
0.0382782
0.0435515
0.0470697
0.0487593
0.068755
0.0596547
0.0562876
0.0559979
0.0687203
0.124145
0.220811
0.0654191
0.057739
0.0573113
0.0646996
0.0904284
0.156946
0.266913
0.0593093
0.0541303
0.0551761
0.0619896
0.0768242
0.102772
0.12783
0.0515685
0.0487787
0.0504914
0.0555976
0.0637357
0.0730739
0.0783828
0.0434904
0.0427162
0.04506
0.0493588
0.0545959
0.0593191
0.061913
0.0360505
0.0369041
0.0399132
0.0440304
0.0482409
0.051305
0.0524662
0.0728695
0.0662851
0.0652544
0.0688175
0.0780319
0.0903222
0.0650692
0.0697481
0.063855
0.0638321
0.0696656
0.0836382
0.109022
0.133224
0.0642318
0.059922
0.0605147
0.0655875
0.0755866
0.0901312
0.103172
0.0572198
0.0546457
0.055633
0.0595339
0.0658227
0.0733196
0.0792275
0.0497984
0.0488555
0.0503359
0.0535576
0.0577639
0.0619007
0.0645808
0.0428415
0.0433239
0.0453857
0.0484375
0.0517463
0.0543661
0.0551124
0.0729511
0.0685947
0.0682046
0.0707548
0.0748506
0.0750446
0.057339
0.0701561
0.0661511
0.066054
0.0693614
0.075886
0.0839172
0.0882464
0.0654407
0.0624039
0.0626811
0.0658371
0.0714604
0.0784472
0.0840188
0.0594587
0.0576289
0.0582794
0.0609492
0.0650485
0.0696021
0.0731813
0.0530523
0.0524591
0.0535532
0.0558984
0.0589086
0.0617788
0.0636894
0.0469497
0.0475021
0.0491192
0.0514103
0.053886
0.0559421
0.0562448
0.0708242
0.0683629
0.068245
0.0698705
0.0719932
0.0721187
0.0670793
0.0683829
0.0660505
0.0660473
0.0679355
0.0710128
0.073992
0.0757504
0.0644925
0.0627423
0.0630192
0.0649669
0.0680403
0.0712909
0.0735998
0.0595992
0.058665
0.0592766
0.0611194
0.0636677
0.0662372
0.0680195
0.0543187
0.0542721
0.0552676
0.0570355
0.0591446
0.0610049
0.0620938
0.0492208
0.050038
0.0514587
0.0532819
0.0552019
0.0567002
0.0566854
0.0677913
0.0668081
0.0670435
0.0682279
0.0695262
0.0695898
0.0678592
0.0656858
0.0647405
0.0650482
0.0663151
0.067957
0.0691242
0.0695011
0.0625376
0.0619388
0.062446
0.0638534
0.0657216
0.0671927
0.067823
0.0586378
0.058569
0.0593534
0.0608506
0.0624843
0.0640668
0.0644836
0.0544332
0.0549571
0.0560403
0.0575299
0.0591472
0.0604971
0.0606476
0.0502925
0.051458
0.0528765
0.0544704
0.05608
0.057305
0.0569522
0.0466775
0.0365675
0.0281636
0.0214719
0.0173042
0.018966
0.0330961
0.0424008
0.0344987
0.0263864
0.0198402
0.0157328
0.0173348
0.0312603
0.0393299
0.0321105
0.0244867
0.018167
0.0141522
0.0157265
0.0294983
0.0367856
0.0300803
0.0227249
0.0165899
0.0126619
0.0142359
0.0279188
0.0342927
0.0281275
0.0211569
0.0151842
0.0113292
0.0129275
0.0265882
0.0345004
0.0266648
0.0198529
0.0139434
0.0101546
0.0118122
0.0255173
0.049652
0.0431223
0.0380564
0.0348237
0.0344084
0.0390096
0.0514433
0.0441253
0.0405875
0.0362581
0.033246
0.0328863
0.0374078
0.0496
0.040926
0.0382091
0.0344109
0.0316386
0.0313622
0.0358415
0.0478581
0.0390406
0.0364017
0.0327757
0.030148
0.0299394
0.0344073
0.0463302
0.0379277
0.034976
0.0313869
0.0288375
0.0286776
0.0331659
0.0450789
0.0393509
0.0340857
0.0301633
0.0276754
0.0275641
0.0321155
0.0441003
0.0550292
0.0496516
0.046572
0.045447
0.0468573
0.0520686
0.0620483
0.0502067
0.0472896
0.0448813
0.043962
0.0454139
0.0505303
0.0602549
0.0472362
0.0450608
0.0431489
0.0424504
0.0439716
0.0490346
0.0585775
0.0454408
0.0433939
0.0416342
0.0410579
0.0426318
0.0476768
0.0571277
0.0443721
0.0421267
0.0403686
0.0398404
0.0414467
0.0465116
0.0559636
0.0450396
0.0412226
0.0391784
0.0387655
0.040399
0.0455317
0.0550724
0.0595321
0.0553591
0.0535796
0.0536678
0.0558733
0.0608287
0.0687786
0.0554668
0.0533169
0.0520656
0.0523086
0.0545336
0.0593873
0.0670887
0.0528446
0.0513208
0.050491
0.0509177
0.0531935
0.0579881
0.0655142
0.0511901
0.0497929
0.0490981
0.0496305
0.0519481
0.0567214
0.0641611
0.0501204
0.0485962
0.0479123
0.0484954
0.0508435
0.0556368
0.0630828
0.0503935
0.0476441
0.0467789
0.0474793
0.0498633
0.0547263
0.0622642
0.0632557
0.0600517
0.0591403
0.0599144
0.0623975
0.0668653
0.0733034
0.0599882
0.0583581
0.0578218
0.0586961
0.0611794
0.0655472
0.0717607
0.0577817
0.0566344
0.0564259
0.05744
0.0599561
0.0642644
0.070319
0.0562937
0.0552541
0.0551624
0.0562646
0.0588131
0.063099
0.0690749
0.0551777
0.0541097
0.0540603
0.0552126
0.0577928
0.0620972
0.0680778
0.0551985
0.053147
0.0529887
0.0542527
0.0568827
0.0612532
0.0673154
0.066288
0.0636097
0.0633774
0.0645846
0.0671254
0.0711148
0.0764686
0.0639392
0.0622339
0.0622294
0.0635024
0.0660346
0.0699355
0.0751013
0.0621618
0.0607859
0.0610103
0.0623836
0.064934
0.0687807
0.0738114
0.0608107
0.0595523
0.0598795
0.0613238
0.0638981
0.0677227
0.0726835
0.0596111
0.0584717
0.05887
0.0603621
0.0629675
0.066805
0.0717631
0.0593274
0.0575578
0.057923
0.0594755
0.0621342
0.0660266
0.0710452
0.0195685
0.0227367
0.0282839
0.0341965
0.0398406
0.0442051
0.0469273
0.0151925
0.0189091
0.024732
0.0308281
0.0362593
0.0403071
0.0428826
0.0121248
0.0162468
0.0223292
0.0285345
0.0339556
0.0380952
0.0410154
0.0104503
0.0148891
0.0211804
0.0275118
0.0330255
0.0373177
0.0403795
0.0102547
0.0149082
0.0213614
0.0278046
0.0333996
0.0377563
0.0407852
0.0116536
0.0164495
0.0230422
0.0295868
0.0352246
0.039553
0.042443
0.0147291
0.0196054
0.0263038
0.0329349
0.0385865
0.0428128
0.0454509
0.029862
0.0319252
0.0355625
0.039861
0.0441607
0.0475402
0.0490744
0.0250378
0.0280026
0.0320731
0.036456
0.0404778
0.0433937
0.0449879
0.0217282
0.025271
0.0296689
0.0341578
0.0381587
0.0411996
0.0433465
0.0199421
0.0238594
0.0285026
0.0331327
0.0372452
0.0404962
0.042871
0.0196814
0.0238232
0.028644
0.0333968
0.0376068
0.0409542
0.0433284
0.0210023
0.0252814
0.0302402
0.0350937
0.0393498
0.0426781
0.0449191
0.0239295
0.0282882
0.0333487
0.0382774
0.0425391
0.0457584
0.047741
0.0369185
0.0385605
0.0411953
0.0443935
0.0477001
0.0503182
0.0511573
0.0322606
0.0347704
0.0378536
0.041152
0.0442005
0.0463465
0.0473305
0.0290515
0.0321299
0.0355525
0.0389557
0.0419841
0.044254
0.0458356
0.0273165
0.0307579
0.0344277
0.0379727
0.0411155
0.0436067
0.0454472
0.0270484
0.0307037
0.0345458
0.0382116
0.0414538
0.0440505
0.0459111
0.0282799
0.0320613
0.036031
0.0397928
0.0430796
0.0456603
0.0473993
0.0310087
0.034864
0.0389263
0.042752
0.046037
0.0485045
0.0499921
0.0416563
0.0431873
0.0452976
0.0477692
0.0503273
0.0523614
0.052862
0.0374647
0.0397341
0.0422541
0.0448617
0.0472551
0.04891
0.0495952
0.0345625
0.0373266
0.0401614
0.0428795
0.0452687
0.047042
0.0482767
0.0329994
0.0360808
0.0391438
0.041994
0.0444917
0.0464709
0.0479473
0.032779
0.0360488
0.0392647
0.0422239
0.0448128
0.0468893
0.0483904
0.0339282
0.0373052
0.0406302
0.0436759
0.0463035
0.0483602
0.0497514
0.0364355
0.0398744
0.0432773
0.0463725
0.0489896
0.0509338
0.0520902
0.0447182
0.0463085
0.0481613
0.0501856
0.0522247
0.0538475
0.0542791
0.0411418
0.0433126
0.0455198
0.0476922
0.0496702
0.0510509
0.0516722
0.0386619
0.0412302
0.0437066
0.0459988
0.0479898
0.0494802
0.05055
0.0373464
0.040172
0.0428458
0.0452539
0.0473405
0.049004
0.050266
0.0372134
0.0401922
0.0429931
0.0454933
0.0476548
0.0493951
0.0506732
0.0382911
0.041354
0.04424
0.046811
0.0490036
0.0507169
0.051895
0.0405662
0.043676
0.0466224
0.0492276
0.0513996
0.0530046
0.0539715
0.0466323
0.0483543
0.0501157
0.0518925
0.0536112
0.0549976
0.0555993
0.0437155
0.0458623
0.0479067
0.0498225
0.051554
0.0528308
0.0535863
0.0417007
0.0441447
0.0464049
0.0484369
0.0501981
0.0515652
0.0526112
0.0406654
0.0433032
0.0457198
0.0478515
0.0496903
0.0511831
0.052346
0.0406391
0.0433927
0.0459082
0.048112
0.0500058
0.0515447
0.0527071
0.0416529
0.0444664
0.0470431
0.0492986
0.0512122
0.0527176
0.053788
0.0436947
0.0465397
0.0491593
0.0514347
0.053317
0.0547216
0.0556088
0.0507591
0.0492514
0.0469537
0.0439604
0.0402071
0.0361954
0.0453497
0.0455176
0.0441075
0.0417122
0.0384929
0.0343878
0.0430401
0.043471
0.0424914
0.0404289
0.037284
0.0333141
0.0422255
0.042649
0.0417853
0.039737
0.0366609
0.0326923
0.0424871
0.0427986
0.0418428
0.0397275
0.0365912
0.0325388
0.0439023
0.0439632
0.0427567
0.040421
0.0370796
0.032842
0.0465285
0.0461675
0.0445411
0.0418117
0.0381164
0.033575
0.0508069
0.0487159
0.0467565
0.0445556
0.0418848
0.0395219
0.0468117
0.0467393
0.0454941
0.0436029
0.0411959
0.0384766
0.0449808
0.0452969
0.0444734
0.0428152
0.040499
0.0377087
0.0443516
0.0446935
0.0439853
0.0423927
0.0400827
0.037218
0.0446809
0.0449238
0.0441388
0.0424734
0.040072
0.0370868
0.0460327
0.0460272
0.0450128
0.0431291
0.0405217
0.0373473
0.0484713
0.0480489
0.0466275
0.0443671
0.0414244
0.0379652
0.0520231
0.0499013
0.0482