/*--------------------------------*- C++ -*----------------------------------*\
  =========                 |
  \\      /  F ield         | OpenFOAM: The Open Source CFD Toolbox
   \\    /   O peration     | Website:  https://openfoam.org
    \\  /    A nd           | Version:  7
     \\/     M anipulation  |
\*---------------------------------------------------------------------------*/
FoamFile
{
    version     2.0;
    format      ascii;
    class       surfaceScalarField;
    location    "0.5";
    object      phi;
}
// * * * * * * * * * * * * * * * * * * * * * * * * * * * * * * * * * * * * * //

dimensions      [0 3 -1 0 0 0 0];

internalField   nonuniform List<scalar> 
22044
(
2.2665
0.00298958
-0.00997457
2.27369
0.00349375
-0.00859089
2.27596
0.00447445
-0.00419488
2.27615
0.00548487
-0.0025816
2.27528
0.00638846
-0.00188876
2.27379
0.00695172
-0.00148877
0.00688569
-0.00121235
2.27209
2.28958
0.00432842
-0.00960901
2.29623
0.0050878
-0.0082454
2.29839
0.00632411
-0.00400572
2.29845
0.00779556
-0.00237974
2.29723
0.00921294
-0.00160208
2.29514
0.010154
-0.00110498
0.0100954
-0.000801144
2.29273
2.29035
0.00507513
-0.00957903
2.29746
0.00615034
-0.00817544
2.29983
0.00784914
-0.0039002
2.29984
0.00998317
-0.00218931
2.29812
0.012205
-0.00127846
2.29506
0.0138645
-0.000645035
0.0139272
-0.000238308
2.29146
2.29143
0.00521517
-0.00964182
2.29915
0.00658323
-0.00814809
2.30194
0.00881497
-0.00375281
2.302
0.0118049
-0.00188065
2.29967
0.0151505
-0.000624805
2.29505
0.0179169
0.000567463
0.0183322
0.00127539
2.28937
2.29285
0.00456751
-0.00971707
2.30139
0.00610363
-0.00806511
2.30491
0.00876137
-0.0034642
2.30527
0.0125361
-0.00109189
2.3023
0.0172032
0.00091689
2.29538
0.0217625
0.00307941
0.0232047
0.00464664
2.28586
2.29447
0.00296208
-0.00975742
2.3041
0.00433861
-0.00786446
2.30873
0.00693505
-0.00279765
2.30992
0.0109157
0.000433678
2.30668
0.0166112
0.00382633
2.29662
0.0235577
0.00826325
0.0276119
0.0122832
2.27993
2.29599
-0.00973352
0.000396594
2.30682
-0.00754577
0.00104948
2.31289
-0.00166153
0.00252658
2.31582
0.00296158
0.00502877
2.31367
0.0093243
0.00943427
2.30059
0.0198659
0.0167722
0.0335579
2.27004
0.0245995
0.264913
0.00399849
-0.00922239
0.262647
0.00460803
-0.00817395
0.26197
0.00568809
-0.00584432
0.260918
0.00696208
-0.00437459
0.259171
0.00818214
-0.00345585
0.256866
0.00899366
-0.00280218
0.00894452
-0.00230471
0.254383
0.267682
0.00547852
-0.00921947
0.265728
0.00646462
-0.0081474
0.265162
0.00805689
-0.00580923
0.264011
0.0100174
-0.00428324
0.261834
0.0119938
-0.0032376
0.258709
0.0134521
-0.00243773
0.0134804
-0.00188406
0.255256
0.268687
0.00641159
-0.00931482
0.267305
0.00784918
-0.00817709
0.267077
0.010139
-0.00575427
0.265895
0.0130819
-0.00407273
0.263139
0.0162407
-0.0027692
0.258682
0.0189328
-0.00166808
0.0193733
-0.000969117
0.25352
0.270158
0.00661309
-0.00949443
0.269579
0.00849131
-0.00821096
0.269952
0.0115801
-0.00556663
0.26889
0.0157947
-0.00353149
0.265502
0.0209249
-0.00192107
0.258914
0.0255993
0.000488516
0.0271555
0.00201879
0.250389
0.272121
0.00580805
-0.00968557
0.272688
0.00797987
-0.00812084
0.274123
0.0117164
-0.00503566
0.27383
0.0174323
-0.00243593
0.269681
0.0248101
0.00118084
0.259917
0.0327183
0.00572371
0.0367567
0.0102319
0.244731
0.274462
0.00375262
-0.00981626
0.276538
0.00581665
-0.00777759
0.279925
0.0097096
-0.00417821
0.281082
0.0160051
0.000703892
0.276844
0.025489
0.00738568
0.262762
0.0380187
0.0170446
0.0483789
0.0285955
0.234828
0.276777
-0.00983248
0.000379771
0.28072
-0.007157
0.00148521
0.286689
-0.00174497
0.00382399
0.291124
0.0062549
0.00827688
0.289126
0.0201627
0.0166482
0.271443
0.0432229
0.0323445
0.0783126
0.218457
0.0566105
0.0242414
0.00412055
-0.00849482
0.0220665
0.00476076
-0.00794355
0.0205473
0.00586806
-0.00672959
0.0189119
0.00724866
-0.00569144
0.0168144
0.00865515
-0.00486043
0.0142574
0.00966537
-0.00414569
0.00968385
0.0115617
-0.00350708
0.0250794
0.00550952
-0.00875864
0.0232726
0.00658871
-0.00816863
0.0219602
0.00832642
-0.00695515
0.0202939
0.0105338
-0.00590208
0.0177714
0.0129485
-0.00500843
0.0142804
0.0149057
-0.00418716
0.015207
0.0103607
-0.00348747
0.0261813
0.00640678
-0.00907809
0.0249891
0.00804002
-0.00843623
0.024104
0.0106562
-0.00719891
0.0225197
0.0141465
-0.00610113
0.0194405
0.0182838
-0.00502536
0.0143957
0.0221499
-0.00386737
0.0235039
0.00806342
-0.00293376
0.0278574
0.00661919
-0.00952091
0.0275841
0.0088554
-0.00875306
0.0274918
0.0125644
-0.00738249
0.0262905
0.0178597
-0.00604334
0.0226371
0.0246013
-0.00458513
0.0150256
0.0326491
-0.00239916
0.03804
0.00340484
-0.000896532
0.0302004
0.00586342
-0.0100257
0.0313174
0.00861021
-0.00899267
0.0327151
0.013418
-0.00728709
0.0325736
0.0208152
-0.00524992
0.0292364
0.0322745
-0.00315523
0.0179927
0.047681
0.00193542
0.0627252
-0.00726438
0.0108037
0.0331673
0.00385876
-0.0104885
0.0363085
0.00667327
-0.00898189
0.04023
0.0118956
-0.0065773
0.0437218
0.0218459
-0.00381852
0.0413115
0.0387485
0.003322
0.0239534
0.0650483
0.0170354
0.0990159
-0.0269125
0.0431707
0.036357
0.000413655
-0.0107765
0.0422615
0.00219141
-0.00857964
0.051532
0.00582934
-0.00494912
0.062517
0.0147781
0.00233759
0.0678293
0.0334685
0.0201304
0.0410631
0.0751669
0.0598705
-0.0522188
0.141994
0.128616
2.27056
0.0060595
-0.000995545
2.26933
0.00485799
-0.00076965
2.26835
0.00361085
-0.000510765
2.26753
0.0024917
-0.000219119
2.26673
0.00156304
0.000126855
0.000833453
0.000537116
2.26582
2.29081
0.00867084
-0.000693532
2.28948
0.00677653
-0.000587006
2.28857
0.00492375
-0.000408895
2.2879
0.00333102
-0.00016419
2.28727
0.00204514
0.00015084
0.00104823
0.000546201
2.2865
2.28904
0.0114969
-0.000405707
2.2877
0.00856884
-0.000444602
2.28701
0.00597041
-0.000363379
2.28662
0.00388312
-0.000164853
2.28628
0.00226329
0.000127515
0.00104012
0.00050476
2.28578
2.28632
0.0141844
0.00036833
2.28517
0.00991787
-0.00020366
2.28494
0.00654422
-0.000337748
2.285
0.0040052
-0.00018071
2.28505
0.00212299
8.36275e-05
0.000728671
0.000438118
2.28493
2.28235
0.0159834
0.00170595
2.28185
0.0101662
0.000254177
2.28237
0.00622224
-0.000198464
2.28308
0.003482
-0.000187002
2.28364
0.00152645
3.15763e-05
5.36322e-05
0.000345139
2.28397
2.27689
0.0155313
0.00349845
2.27785
0.00848035
0.000722025
2.27953
0.00457655
-3.32706e-05
2.28108
0.00209865
-0.000167789
2.28226
0.000368878
-2.18021e-05
-0.000858417
0.000201039
2.28297
2.26995
0.00579835
0.00982366
2.27364
0.0010784
0.00371393
2.27691
0.00014907
0.00116188
2.27935
-0.000101063
-0.000242303
2.28096
-4.88587e-05
-0.00119776
4.60853e-06
2.2821
-0.00199832
0.252206
0.00780142
-0.00187648
0.250468
0.00618067
-0.00142238
0.249099
0.00454504
-0.000900866
0.24799
0.00310036
-0.00032285
0.246934
0.00191722
0.000416545
0.00099491
0.00126636
0.24579
0.252579
0.0114013
-0.00161657
0.250747
0.00874731
-0.00132162
0.249498
0.00627669
-0.000891253
0.248594
0.00418756
-0.000348237
0.247757
0.00252653
0.00037861
0.00125026
0.00123442
0.246814
0.250178
0.0154423
-0.00110496
0.248393
0.0112177
-0.00113022
0.247463
0.00772405
-0.000880408
0.246963
0.00494188
-0.000419518
0.246511
0.00281932
0.000286822
0.00122479
0.00112901
0.245912
0.246351
0.0196079
0.000240734
0.244996
0.0132606
-0.000891682
0.244684
0.0085379
-0.000840035
0.24482
0.00514447
-0.00051872
0.244909
0.0026479
0.000165588
0.000801911
0.000973498
0.244797
0.240496
0.022319
0.00322979
0.240277
0.0136262
0.000107473
0.241211
0.00821997
-0.000814849
0.242265
0.00449647
-0.000592812
0.243039
0.00187098
3.44305e-05
-9.58785e-05
0.000766055
0.243516
0.232275
0.0211947
0.00717554
0.234601
0.0112368
0.000785854
0.237312
0.00604614
-0.000570525
0.239557
0.0027104
-0.000627603
0.241138
0.000366355
-9.72736e-05
-0.00135517
0.000450029
0.242148
0.222268
0.00889005
0.0142924
0.228943
0.000592814
0.00504664
0.233845
-0.000353246
0.00164667
0.237279
-0.000520628
-0.000304337
0.239408
-0.000179623
-0.00163099
-1.25169e-05
0.240919
-0.00284922
0.00929869
0.0083146
-0.00288228
0.00756817
0.00645715
-0.00218791
0.00626222
0.00466589
-0.00139502
0.0052171
0.00313274
-0.000497939
0.00431038
0.00189992
0.000567977
0.000951108
0.00337478
0.00180824
0.00758525
0.0124502
-0.00297665
0.00584145
0.00924213
-0.00236279
0.00472456
0.00647421
-0.00158268
0.00392934
0.004236
-0.000656276
0.00326898
0.00249049
0.000448405
0.00116952
0.00255564
0.00172934
0.00468768
0.0175832
-0.00286224
0.00318007
0.0121488
-0.00252927
0.00253505
0.00806709
-0.00182826
0.00221688
0.00502863
-0.000893972
0.00198047
0.00276761
0.000246097
0.001092
0.00163604
0.00155097
-0.000210692
0.0234337
-0.00199428
-0.000834355
0.0144472
-0.0025664
-0.00051285
0.00900498
-0.00209944
-6.26284e-05
0.00524479
-0.0011851
0.00028739
0.0025875
-4.32894e-06
0.000600976
0.000449043
0.00130287
-0.00852038
0.0276478
0.000271767
-0.00636643
0.0146794
-0.00227874
-0.00439575
0.00857935
-0.0023599
-0.00282924
0.00458386
-0.00149839
-0.00173188
0.00180366
-0.000279084
-0.000398421
-0.000955116
0.000988692
-0.0200423
0.0230378
0.00491532
-0.0130285
0.0112218
-0.00277037
-0.00866062
0.00633031
-0.00268936
-0.00570732
0.0028506
-0.00184764
-0.00380163
0.000360034
-0.000559345
-0.00174248
-0.00251768
0.000510142
-0.0276654
0.00861943
-0.00124494
-0.017741
0.0051912
-0.00330104
-0.0112393
0.00248835
-0.00301295
-0.00713689
0.000259683
-0.0020321
-0.0049406
-0.00119391
-0.000821971
-0.00360731
-0.00296307
-0.000125218
2.2646
0.00029038
0.0010676
2.26278
-8.73608e-05
0.00182796
2.25983
-0.000336174
0.00306383
2.25471
-0.000509546
0.00528963
2.2446
-0.00049931
0.0102037
2.21931
-5.92832e-05
0.0249407
-0.000839237
0.0581104
2.28541
0.000312605
0.00107404
2.28365
-0.000178769
0.00184864
2.28068
-0.000477569
0.0031169
2.27541
-0.000646656
0.00540291
2.2653
-0.000693351
0.0103035
2.2412
-0.00067794
0.0247203
-0.000957198
0.057755
2.28494
0.000136194
0.00102229
2.28336
-0.000400586
0.00180204
2.28052
-0.000719552
0.00308079
2.27537
-0.000881416
0.00537748
2.26536
-0.000944958
0.0102638
2.24103
-0.00097301
0.0246291
-0.00107944
0.0577955
2.28436
-0.000243519
0.00094243
2.28302
-0.000789875
0.00172731
2.28035
-0.00106888
0.00302491
2.27531
-0.0011811
0.00533921
2.26534
-0.00120639
0.0102337
2.24096
-0.0012054
0.0246075
-0.00121321
0.057806
2.28378
-0.000849171
0.00079699
2.28272
-0.00133013
0.00160192
2.28022
-0.00150335
0.00293557
2.27527
-0.00151786
0.00528226
2.26534
-0.00146738
0.0101997
2.24095
-0.00140809
0.0245934
-0.00135182
0.0578117
2.28326
-0.00169417
0.00055141
2.28252
-0.00197674
0.00139124
2.28019
-0.00196728
0.00279226
2.27532
-0.00184203
0.005195
2.26539
-0.00169374
0.0101518
2.24098
-0.00156856
0.0245739
-0.00146551
0.05781
2.28295
8.75451e-05
-0.00263353
2.28251
0.00102756
-0.00256403
2.28031
0.00256712
-0.00233145
2.27547
0.00506952
-0.00206956
2.26552
0.0100884
-0.00183703
2.24106
0.0245486
-0.00166026
0.0578037
-0.0015261
0.244335
0.000313373
0.00237345
0.24229
-0.000151231
0.00390597
0.239326
-0.000440802
0.00616942
0.235095
-0.000609877
0.00971891
0.229712
-0.000629485
0.0157547
0.227748
-0.000445728
0.0269118
-0.000925712
0.0455021
0.24553
0.000312067
0.00235876
0.243601
-0.000299778
0.0039262
0.2407
-0.00066247
0.00624027
0.236498
-0.000862166
0.00985704
0.231176
-0.000945932
0.015942
0.22927
-0.000973364
0.0271533
-0.00117586
0.0466682
0.244959
3.48117e-05
0.00225298
0.243263
-0.000629609
0.00382764
0.240534
-0.00101613
0.00616348
0.236458
-0.00120511
0.00979598
0.231191
-0.00128352
0.0158683
0.229168
-0.00132384
0.0270026
-0.00139892
0.0466044
0.244228
-0.000505848
0.00205216
0.242856
-0.00119372
0.00366324
0.240333
-0.00151391
0.0060458
0.236375
-0.00162554
0.00971739
0.231153
-0.00163903
0.0158112
0.229114
-0.00162676
0.0269494
-0.00161194
0.0465735
0.243488
-0.00140548
0.00172492
0.242493
-0.00198303
0.00338642
0.240193
-0.00213503
0.00585683
0.236346
-0.00209693
0.00960076
0.231159
-0.00199655
0.0157435
0.22911
-0.00189898
0.0269151
-0.00181278
0.0465684
0.242838
-0.00266361
0.00111966
0.242284
-0.00293966
0.002902
0.240202
-0.00280652
0.0055457
0.236436
-0.00255499
0.00941873
0.231253
-0.00230879
0.0156474
0.229169
-0.0021176
0.0268762
-0.001972
0.0465709
0.242498
-8.23827e-05
-0.00407278
0.242379
0.00201537
-0.00380818
0.24044
0.00502723
-0.00332768
0.23668
0.0091458
-0.00287137
0.231446
0.0155174
-0.00250371
0.229288
0.0268306
-0.0022423
0.04658
-0.00205717
0.00228809
0.000255067
0.00333798
0.000924522
-0.000203912
0.00532677
-0.000775759
-0.000474431
0.00802757
-0.00269285
-0.000622707
0.0118449
-0.00410968
-0.000676382
0.0173791
-0.00246836
-0.000741351
0.0254506
-0.00123204
0.0353838
0.00167266
0.000198529
0.00329828
0.000459446
-0.000405557
0.00534105
-0.00113112
-0.00074764
0.00810405
-0.00296284
-0.000928142
0.0119942
-0.00428433
-0.00101834
0.0176055
-0.0026226
-0.00110012
0.0258503
-0.00128777
0.036318
0.00109188
-0.000150903
0.00314656
0.000131623
-0.00082303
0.00520538
-0.00128421
-0.00116549
0.00799716
-0.00301209
-0.00131471
0.0119104
-0.00431722
-0.00137139
0.0175265
-0.00277085
-0.0014063
0.0257624
-0.00145783
0.036318
0.000363659
-0.000884622
0.00287126
-0.000254639
-0.00152943
0.00498794
-0.00146201
-0.00175648
0.00784416
-0.00307699
-0.00179113
0.0118088
-0.00434824
-0.00175305
0.0174641
-0.00282448
-0.00170669
0.025726
-0.00166328
0.036316
-0.000379995
-0.00213739
0.00240256
-0.000567833
-0.00256775
0.00461257
-0.00154764
-0.00252032
0.00760048
-0.00305807
-0.00233893
0.011659
-0.00430522
-0.00214748
0.0173851
-0.00280119
-0.00199013
0.0256945
-0.0018641
0.0363218
-0.00100355
-0.00397649
0.00144463
-0.000659385
-0.00390913
0.00389921
-0.00142495
-0.00339229
0.00718324
-0.00287727
-0.00289288
0.011425
-0.00414749
-0.00249944
0.0172696
-0.00269195
-0.00222033
0.0256509
-0.00202159
0.0363262
-0.00108948
-0.00622345
-0.000353259
-0.000244953
-0.00517018
0.0024319
-0.000937758
-0.00407816
0.0064059
-0.00247816
-0.00326889
0.0110622
-0.00385888
-0.00271064
0.0171093
-0.00250039
-0.00234544
0.0255972
-0.00210021
0.0363318
2.29679
-0.0027754
-0.00964822
2.30832
-0.00328947
-0.00718669
2.31569
-0.00423082
-0.000608999
2.32085
-0.00609618
0.00595989
2.32204
-0.00970314
0.0179472
2.3095
-0.0162567
0.0455669
-0.0239444
0.101325
2.25672
2.29627
-0.00558485
-0.00966866
2.30728
-0.00687326
-0.00742676
2.31358
-0.00915987
-0.00137246
2.31671
-0.0127976
0.00357469
2.31456
-0.0181755
0.0106232
2.30085
-0.0249844
0.0224379
-0.0293289
0.0377331
2.2685
2.29494
-0.00757775
-0.00966042
2.30488
-0.00913652
-0.00767475
2.30976
-0.0117076
-0.00233582
2.31111
-0.0153894
0.00124348
2.30767
-0.0200564
0.00532192
2.29654
-0.0247503
0.0108983
-0.0263324
0.0155922
2.27795
2.29337
-0.00869291
-0.00958225
2.30224
-0.010178
-0.00782818
2.30602
-0.012468
-0.00301955
2.30645
-0.0155571
-0.000256866
2.30314
-0.0190708
0.00232192
2.29512
-0.0220664
0.0053327
-0.0225418
0.00740719
2.28393
2.29193
-0.0090618
-0.00945368
2.29993
-0.0103096
-0.00787086
2.30294
-0.0121253
-0.0033516
2.303
-0.0144734
-0.00114096
2.30029
-0.0169455
0.000584307
2.29473
-0.0188244
0.00231409
-0.0189379
0.00343545
2.28769
2.29076
-0.00930453
-0.00887476
2.29812
-0.00784043
-0.00982507
2.30062
-0.00347709
-0.0111514
2.30059
-0.00164744
-0.0127941
2.2985
-0.000385994
-0.0144718
2.29466
0.000654015
-0.0156361
0.00126689
2.29006
-0.0156104
0.278047
-0.00381103
-0.00968814
0.283496
-0.00457782
-0.00657232
0.2923
-0.00618247
0.000593342
0.302136
-0.00957384
0.013975
0.310365
-0.0164903
0.0428564
0.302042
-0.0303862
0.116621
-0.0535646
0.322115
0.191426
0.27719
-0.00748519
-0.00970058
0.281481
-0.0093708
-0.00692456
0.287893
-0.0128162
-0.00115059
0.2928
-0.0186146
0.00770811
0.291138
-0.0275525
0.0233483
0.272956
-0.0398784
0.0501112
-0.0506552
0.0904328
0.217347
0.275159
-0.0100522
-0.00961415
0.277739
-0.0122438
-0.00738197
0.281611
-0.0159237
-0.00310051
0.28322
-0.0214822
0.00250213
0.278801
-0.0289074
0.0110961
0.263068
-0.0370147
0.0237673
-0.0409244
0.0364083
0.232521
0.272889
-0.0114654
-0.0093921
0.273921
-0.0134935
-0.00761043
0.275935
-0.0166747
-0.00428212
0.27587
-0.0212003
-0.000473828
0.271364
-0.0266078
0.00452782
0.259855
-0.0316664
0.0114936
-0.0331113
0.0173246
0.242124
0.270862
-0.0119031
-0.00908813
0.270696
-0.0135759
-0.00762282
0.271427
-0.0160744
-0.0046833
0.270637
-0.0193616
-0.00218896
0.266748
-0.0231052
0.000970264
0.258786
-0.0262739
0.00488379
-0.0267784
0.00785159
0.248037
0.269246
-0.00875782
-0.0116063
0.268192
-0.00749541
-0.0128664
0.268192
-0.00487384
-0.0146784
0.267034
-0.00286496
-0.0169861
0.263886
-0.000905541
-0.0194373
0.258359
0.00132257
-0.0214151
0.00292842
0.25151
-0.0215907
0.0383396
-0.00394922
-0.0108059
0.0470783
-0.00511957
-0.00800007
0.0643748
-0.0078262
-0.00304767
0.0943153
-0.0148857
0.0136983
0.140722
-0.0303878
0.0603065
0.174372
-0.0662777
0.224415
-0.125616
-0.0629873
0.827084
0.0369349
-0.00765225
-0.0106686
0.0433581
-0.0102019
-0.0082654
0.0538189
-0.0149171
-0.00452046
0.0662837
-0.024205
0.00456265
0.074457
-0.0402358
0.025023
0.0520021
-0.0656761
0.0719645
-0.0948185
-0.0363036
0.147941
0.034112
-0.010164
-0.0102735
0.0379014
-0.0129075
-0.00846579
0.0430331
-0.0175569
-0.00559246
0.0479519
-0.0252254
-0.00139627
0.0467656
-0.0368398
0.00888634
0.0288004
-0.0523858
0.0284423
-0.0647073
-0.0220242
0.0571218
0.0312225
-0.0115261
-0.00968347
0.0330006
-0.0139459
-0.00835028
0.0351693
-0.0178243
-0.0061834
0.0364755
-0.0234365
-0.00356893
0.0335208
-0.0313026
0.00194528
0.0208862
-0.0402102
0.0119527
-0.044217
-0.00749766
0.0252182
0.028768
-0.011935
-0.00901573
0.0290569
-0.0138599
-0.00799766
0.0295869
-0.0167993
-0.00623836
0.0289479
-0.0208376
-0.00414887
0.0258245
-0.0258229
-0.00138593
0.0171827
-0.0309873
0.00430262
-0.0322077
0.00190064
0.0111243
0.0268754
-0.0116185
-0.00836623
0.0261073
-0.0130368
-0.0075504
0.0256119
-0.0151282
-0.00604942
0.0242507
-0.017895
-0.00444647
0.0211998
-0.0211158
-0.00256174
0.0153094
-0.0242466
0.000472342
0.00646905
-0.0250467
0.00460775
2.26329
-0.0110459
0.0142995
2.27073
-0.00589654
0.00217296
2.27537
-0.00401695
0.000537856
2.27829
-0.0032538
9.62962e-05
2.28015
-0.00298518
-7.37366e-05
-0.00296372
-0.000367614
2.28148
2.26895
-0.0176951
0.00619426
2.27297
-0.0111302
0.00121485
2.27626
-0.0076854
0.000385196
2.2786
-0.00566395
6.69287e-05
2.28019
-0.00444956
-0.000129394
-0.00369449
-0.000529534
2.28145
2.27543
-0.0189124
0.00373153
2.27672
-0.0133253
0.000905987
2.27841
-0.00965825
0.000285574
2.27987
-0.00715303
2.32902e-05
2.28098
-0.00539002
-0.000167743
-0.0041265
-0.000578523
2.28199
2.2807
-0.0179965
0.00230735
2.28046
-0.013706
0.000619395
2.28101
-0.0103663
0.000157492
2.28168
-0.00779184
-2.90197e-05
2.28228
-0.00579017
-0.0001932
-0.00422397
-0.000562094
2.28294
2.28471
-0.0161466
0.00113675
2.28378
-0.0130098
0.000235762
2.28362
-0.0101758
-3.64772e-05
2.28372
-0.00775484
-0.000139412
2.28387
-0.00571289
-0.000222024
-0.00399306
-0.000502663
2.28414
2.28763
0.000116477
-0.013835
2.28655
-0.000402596
-0.0115192
2.28604
-0.000441294
-0.00922461
2.28578
-0.000401466
-0.00709635
2.2856
-0.00034583
-0.00518246
-0.000450683
2.28552
-0.00347033
0.212862
-0.0156425
0.0227992
0.225625
-0.00785649
0.00231242
0.232302
-0.00530066
0.000808788
0.236261
-0.00427106
0.000103812
0.238631
-0.00394494
-0.000129572
-0.00400738
-0.000827594
0.240249
0.222299
-0.0233253
0.00892547
0.229104
-0.0144067
0.000959585
0.233657
-0.00998838
0.000520564
0.236733
-0.00737355
9.28116e-05
0.238684
-0.00580714
-0.000217791
-0.00487074
-0.00122565
0.240244
0.231337
-0.0253222
0.00691309
0.234012
-0.0173681
0.00119199
0.236503
-0.012578
0.000383531
0.238418
-0.00929227
2.8008e-05
0.239703
-0.00699564
-0.000264556
-0.00535209
-0.0013332
0.240939
0.238793
-0.0241366
0.00445293
0.239065
-0.0179634
0.000943064
0.239932
-0.0135268
0.000238833
0.240796
-0.0101396
-4.50553e-05
0.241413
-0.00750432
-0.000301928
-0.00541851
-0.001286
0.242203
0.244476
-0.0215968
0.00215781
0.243534
-0.0171333
0.000347732
0.243394
-0.0133698
-5.38983e-05
0.243476
-0.0101634
-0.00019658
0.243547
-0.00743587
-0.000361924
-0.00509222
-0.00113787
0.243856
0.248533
8.08688e-05
-0.018585
0.247212
-0.000826219
-0.0153879
0.246586
-0.000901655
-0.0122839
0.246211
-0.000783882
-0.00940551
0.245881
-0.000662335
-0.00678965
-0.000959615
0.24568
-0.00438218
-0.0278065
-0.00376206
-0.0148057
-0.00549724
-0.00730142
-0.00420711
-0.00367715
-0.00326078
-0.00193796
-0.00306267
-0.00342662
-0.002302
-0.014834
-0.0163062
-0.0092953
-0.0100763
-0.00537115
-0.00761069
-0.00287729
-0.00566183
-0.00166878
-0.00448896
-0.00390307
-0.00241797
-0.00986647
-0.0215509
-0.00551177
-0.013239
-0.00305438
-0.00968455
-0.00151279
-0.0071754
-0.00086478
-0.00540153
-0.00415891
-0.00194214
-0.0035052
-0.0210904
-0.00152675
-0.0142744
-0.000336928
-0.0106355
0.000384226
-0.0079416
0.000523574
-0.00584281
-0.00413551
-0.000785824
0.00197633
-0.0190083
0.00220138
-0.0141517
0.0024328
-0.0109208
0.00254358
-0.00824897
0.00230323
-0.00596438
-0.00387401
0.000903862
0.00557807
-0.0180364
0.00514015
-0.01454
0.00489837
-0.0115807
0.00466492
-0.0087994
0.00421069
-0.00617248
0.00281613
-0.00343906
2.28301
-0.00301508
-0.00114578
2.28273
-0.00277683
0.000489256
2.28057
-0.00244291
0.00227626
2.2757
-0.0021228
0.0049216
2.2657
-0.00185748
0.0100195
2.24118
-0.00166202
0.0245229
-0.00151728
0.0577976
2.28324
-0.00320181
-0.00160206
2.28306
-0.00275858
0.000164968
2.28089
-0.00235631
0.00208631
2.27597
-0.00202199
0.00481938
2.2659
-0.00176231
0.00997218
2.2413
-0.00157653
0.0245076
-0.00143947
0.0577966
2.28369
-0.00321759
-0.00168109
2.28346
-0.0025809
5.15232e-05
2.28122
-0.00213254
0.00201658
2.27623
-0.00181024
0.00478214
2.26609
-0.00158006
0.0099581
2.24142
-0.00142252
0.0245084
-0.00130567
0.0578035
2.28434
-0.00302818
-0.00159517
2.28392
-0.00227103
0.000113119
2.28155
-0.00181575
0.00205304
2.27646
-0.0015297
0.00480716
2.26625
-0.00134474
0.00997796
2.24152
-0.0012256
0.0245258
-0.00113554
0.0578186
2.28512
-0.00259459
-0.00141043
2.28439
-0.00185627
0.000313774
2.28184
-0.00145104
0.00218059
2.27665
-0.00122429
0.00488734
2.26637
-0.00109257
0.0100283
2.2416
-0.00101365
0.0245581
-0.00095089
0.057841
2.28588
-0.000886946
-0.00206082
2.28481
0.000636463
-0.00143004
2.28208
0.00239322
-0.00111008
2.27679
0.00501713
-0.000947368
2.26645
0.0101048
-0.000862265
2.24165
0.0246029
-0.000814682
0.057869
-0.000772324
0.242847
-0.0043131
-0.0035038
0.242868
-0.00394219
0.000602611
0.240905
-0.00340474
0.00431628
0.237056
-0.00291035
0.00880974
0.231716
-0.00251762
0.015373
0.22945
-0.00224051
0.0267871
-0.00204634
0.0465985
0.243227
-0.00437272
-0.00452591
0.243393
-0.0037691
-0.000174469
0.241399
-0.00319937
0.00387488
0.237454
-0.00272903
0.00858355
0.232002
-0.00236902
0.0152757
0.229621
-0.00211828
0.0267661
-0.00194076
0.0466292
0.243852
-0.00420505
-0.00476175
0.243961
-0.00339295
-0.000434028
0.241871
-0.00281653
0.00372383
0.237818
-0.00240016
0.00850638
0.23226
-0.00210293
0.0152502
0.229775
-0.00190313
0.026778
-0.00175856
0.0466726
0.244704
-0.00379643
-0.00450423
0.244554
-0.00286717
-0.000262618
0.242296
-0.00232093
0.00381547
0.238121
-0.00198428
0.00856634
0.232467
-0.00176762
0.0152964
0.229897
-0.00163052
0.0268234
-0.00152647
0.0467266
0.245685
-0.0031855
-0.00385047
0.245131
-0.00222529
0.000225833
0.242647
-0.00177219
0.0041158
0.238344
-0.0015417
0.00874764
0.232611
-0.00141309
0.0154067
0.229979
-0.00133844
0.0268979
-0.0012739
0.0467878
0.246697
-0.00288364
-0.00220579
0.245624
0.00102026
-0.00153686
0.242893
0.00461581
-0.00126305
0.238476
0.00903922
-0.00114723
0.232689
0.0155721
-0.00109327
0.230023
0.026996
-0.0010651
0.0468538
-0.00102959
0.000841664
-0.00542312
-0.00744779
0.0010511
-0.0047576
-1.94097e-05
-3.98979e-05
-0.00392374
0.00525285
-0.00188906
-0.00320918
0.0105992
-0.00347385
-0.00268091
0.0169281
-0.00225334
-0.00232228
0.0255435
-0.00207706
0.0363439
0.00166645
-0.0046179
-0.00941556
0.00187185
-0.00411296
-0.00102449
0.000691768
-0.00344011
0.00457134
-0.00134548
-0.00288119
0.0102928
-0.00310014
-0.00245959
0.016809
-0.00200772
-0.0021653
0.0255167
-0.00195569
0.0363691
0.00232838
-0.00388484
-0.00976532
0.00253035
-0.00331647
-0.00143248
0.00124805
-0.00280471
0.00437072
-0.000918737
-0.00240793
0.0101999
-0.00279656
-0.00211585
0.0167842
-0.00180314
-0.00191178
0.0255311
-0.00175716
0.0364104
0.00311112
-0.00302122
-0.00926479
0.00308094
-0.00245801
-0.0010909
0.00165507
-0.00208666
0.00452329
-0.000622765
-0.00186012
0.0102964
-0.00258624
-0.00170809
0.0168521
-0.00165909
-0.00160313
0.0255876
-0.0015104
0.036467
0.00390739
-0.001948
-0.00792721
0.0035354
-0.00150627
-0.000353912
0.00190314
-0.00133602
0.00499742
-0.000467042
-0.00130314
0.0105608
-0.0024777
-0.00129323
0.0170025
-0.00158223
-0.00128183
0.0256812
-0.00124648
0.0365357
0.00452325
-0.000785582
-0.00575319
0.00379886
-0.000491555
0.000729929
0.00194682
-0.000654096
0.00578593
-0.000463356
-0.000829888
0.0109761
-0.00247046
-0.000936743
0.0172227
-0.00156938
-0.000991293
0.0258044
-0.000995429
0.0366128
2.28991
-0.0082734
-0.0091533
2.2968
-0.00894246
-0.00776922
2.299
-0.00983872
-0.00351981
2.29895
-0.0109096
-0.00183512
2.29739
-0.0119183
-0.000988944
2.29468
-0.0125053
-0.00042067
-0.0122416
-0.000300365
2.29161
2.28935
-0.00735692
-0.00901659
2.29591
-0.00782616
-0.00767738
2.29796
-0.00839611
-0.00349206
2.298
-0.00905566
-0.00189917
2.29687
-0.00961421
-0.0011683
2.29497
-0.00983214
-0.000778758
-0.00947448
-0.000676542
2.29288
2.28899
-0.00627657
-0.00889535
2.29535
-0.00659896
-0.00758264
2.29733
-0.00695097
-0.0034306
2.29749
-0.00733705
-0.00187973
2.2967
-0.00761823
-0.00120016
2.29536
-0.00764399
-0.000846821
-0.00728862
-0.000698081
2.29387
2.28877
-0.00511427
-0.00880044
2.295
-0.0053327
-0.00750152
2.29697
-0.00555559
-0.00336406
2.29724
-0.00577723
-0.00183117
2.2967
-0.00590399
-0.0011699
2.29572
-0.00584544
-0.000822124
-0.00553581
-0.000635053
2.29461
2.28863
-0.00389204
-0.00874923
2.29479
-0.00404129
-0.00745313
2.29677
-0.0042173
-0.00331557
2.29714
-0.00436002
-0.00178493
2.29677
-0.00441343
-0.00112687
2.29604
-0.00433308
-0.000774508
-0.00408756
-0.000561933
2.29515
2.28853
-0.00254109
-0.00879531
2.29461
-0.002639
-0.00748837
2.29663
-0.00291283
-0.00331804
2.29709
-0.00304756
-0.00177266
2.29686
-0.00307368
-0.00110855
2.29628
-0.00300411
-0.000748607
-0.00282926
-0.000519349
2.29554
2.26587
-0.00917542
2.27275
-0.00781316
2.27503
-0.00343575
2.2756
-0.00183179
2.27548
-0.00115684
2.27501
-0.000790039
-0.000549254
2.27438
0.268075
-0.010774
-0.00843136
0.266386
-0.0116478
-0.00729884
0.265933
-0.0128592
-0.00488605
0.264669
-0.0143427
-0.00321413
0.262026
-0.0157922
-0.00199067
0.258054
-0.0167016
-0.00116229
-0.0164392
-0.000898302
0.2535
0.267306
-0.00953715
-0.00812818
0.265188
-0.0101385
-0.00706866
0.264505
-0.0108997
-0.00476838
0.263334
-0.0118004
-0.0032703
0.26126
-0.0125834
-0.00230335
0.258398
-0.0129203
-0.00169753
-0.0124445
-0.00162423
0.255351
0.266823
-0.00809724
-0.00785461
0.264439
-0.00849959
-0.0068374
0.263665
-0.00896201
-0.00459429
0.262637
-0.00947731
-0.00317477
0.261019
-0.00986175
-0.0023037
0.258926
-0.00990731
-0.00176723
-0.00941984
-0.00156044
0.256764
0.266526
-0.00656876
-0.00762968
0.263993
-0.00683145
-0.00663588
0.263194
-0.00710724
-0.00442049
0.262308
-0.00739023
-0.00303214
0.261025
-0.00755612
-0.00219233
0.259435
-0.00747837
-0.00166132
-0.00705752
-0.00134891
0.257787
0.266348
-0.00501408
-0.00747341
0.263729
-0.00517618
-0.00648888
0.262939
-0.00535242
-0.00428058
0.262173
-0.00551082
-0.00289903
0.261127
-0.00557256
-0.00206369
0.259857
-0.00546354
-0.00151977
-0.00513648
-0.0011418
0.258516
0.266232
-0.00347882
-0.00741585
0.263546
-0.00354989
-0.00642881
0.26278
-0.00370128
-0.00420325
0.262117
-0.00381003
-0.00281025
0.261235
-0.00383105
-0.00196739
0.260168
-0.00373664
-0.00140906
-0.00350652
-0.00099858
0.259017
0.26402
-0.00746944
0.261346
-0.00646907
0.260678
-0.00419841
0.260125
-0.0027749
0.259374
-0.00191969
0.258456
-0.0013502
-0.000921737
0.257442
0.0255263
-0.0107738
-0.00777993
0.024019
-0.0117357
-0.00709273
0.0228904
-0.0131015
-0.00578417
0.0211366
-0.0148413
-0.00451392
0.0180313
-0.0166547
-0.00334661
0.0128577
-0.0180023
-0.00223295
-0.0178908
0.00695322
-0.00214963
0.0246539
-0.00952273
-0.00724528
0.0226671
-0.0101734
-0.00664419
0.0212325
-0.0110212
-0.00541402
0.0194884
-0.0120433
-0.00432426
0.0169472
-0.0129758
-0.00344095
0.0134609
-0.0134452
-0.00276845
-0.0128645
0.00958979
-0.00277944
0.0241107
-0.00808345
-0.00677099
0.0218382
-0.00851212
-0.0062262
0.0202878
-0.00901869
-0.00504639
0.0186782
-0.00958638
-0.00402211
0.0166486
-0.0100246
-0.00322518
0.0141645
-0.0100914
-0.00263702
-0.00948572
0.0116235
-0.0023982
0.0237784
-0.00657436
-0.00637943
0.0213517
-0.00684751
-0.00587387
0.0197727
-0.00713794
-0.00472225
0.0183116
-0.00743805
-0.00371935
0.0166567
-0.00761698
-0.00294511
0.0147925
-0.00752702
-0.00236138
-0.00702338
0.0129465
-0.00196525
0.0235842
-0.00506526
-0.00608584
0.0210736
-0.00522291
-0.00560283
0.019504
-0.00538592
-0.00446306
0.0181705
-0.00553914
-0.00346442
0.016777
-0.00559646
-0.00269072
0.0152926
-0.00547133
-0.00209108
-0.00510195
0.0138453
-0.00161598
0.0234687
-0.00360977
-0.00589494
0.0209036
-0.00366223
-0.00542441
0.0193539
-0.00375721
-0.00428227
0.0181207
-0.00383991
-0.00327628
0.0169014
-0.0038505
-0.00249403
0.01564
-0.00374239
-0.00187661
-0.00348658
0.0143821
-0.00135605
0.0232326
-0.00576216
0.0206536
-0.00531242
0.0191498
-0.00416693
0.0180096
-0.00315032
0.0169231
-0.00235952
0.0158179
-0.00173116
0.014703
-0.00119116
2.2898
-0.010853
-0.0011692
2.28877
-0.00912519
-0.0013627
2.28813
-0.00737038
-0.00122109
2.28768
-0.0057067
-0.000937947
2.2873
-0.00418515
-0.000611979
-0.0028491
-0.000263323
2.28694
2.29143
-0.0084276
-0.000975223
2.29046
-0.00712883
-0.001029
2.28977
-0.00579482
-0.000876285
2.28919
-0.00452021
-0.000606519
2.28862
-0.00335641
-0.000266285
-0.00233962
0.000119365
2.28799
2.29267
-0.00651302
-0.00072158
2.29176
-0.00554952
-0.000664047
2.29101
-0.0045452
-0.000501822
2.29033
-0.00357642
-0.000264051
2.28962
-0.00269306
4.54388e-05
-0.00192304
0.000422693
2.28878
2.2936
-0.00496824
-0.000539147
2.29274
-0.00426425