/*--------------------------------*- C++ -*----------------------------------*\
  =========                 |
  \\      /  F ield         | OpenFOAM: The Open Source CFD Toolbox
   \\    /   O peration     | Website:  https://openfoam.org
    \\  /    A nd           | Version:  7
     \\/     M anipulation  |
\*---------------------------------------------------------------------------*/
FoamFile
{
    version     2.0;
    format      ascii;
    class       volVectorField;
    location    "0.5";
    object      U;
}
// * * * * * * * * * * * * * * * * * * * * * * * * * * * * * * * * * * * * * //

dimensions      [0 1 -1 0 0 0 0];

internalField   nonuniform List<vector> 
7784
(
(0.451174 0.000348748 -0.000859174)
(0.450313 0.000402679 -0.000748441)
(0.449952 0.000507046 -0.000384454)
(0.450075 0.000619623 -0.000243271)
(0.44991 0.000722229 -0.000181581)
(0.449569 0.000786788 -0.000144843)
(0.449141 0.00078067 -0.000118799)
(0.451229 0.000744299 -0.000834426)
(0.45045 0.00086236 -0.000722322)
(0.450136 0.00107717 -0.000364695)
(0.450254 0.00132335 -0.000219541)
(0.450049 0.00155633 -0.000148234)
(0.449618 0.00170757 -0.000101241)
(0.449062 0.00169636 -7.25124e-05)
(0.451319 0.000998532 -0.000830303)
(0.45065 0.00117423 -0.000713334)
(0.450414 0.00147628 -0.000350212)
(0.450554 0.00185209 -0.000193796)
(0.450295 0.00223382 -0.000105228)
(0.449712 0.00250431 -3.68248e-05)
(0.448921 0.00250482 2.38777e-07)
(0.451447 0.00111128 -0.000833814)
(0.450934 0.00134977 -0.000706703)
(0.450816 0.0017617 -0.000328437)
(0.451014 0.00230423 -0.000148374)
(0.450705 0.00289632 -2.65009e-05)
(0.449894 0.00336413 9.16542e-05)
(0.448693 0.00341586 0.000158791)
(0.451614 0.00106505 -0.000836817)
(0.451308 0.00135494 -0.000692178)
(0.451371 0.00187286 -0.000285942)
(0.451691 0.00259687 -5.9946e-05)
(0.45136 0.00345738 0.000150164)
(0.450239 0.00423834 0.000381187)
(0.448333 0.00443367 0.00053393)
(0.451805 0.000817333 -0.000834867)
(0.45175 0.00111513 -0.000663394)
(0.452062 0.00167619 -0.000212672)
(0.452604 0.0025166 0.000112605)
(0.452355 0.00364195 0.000484798)
(0.450887 0.0048758 0.000948648)
(0.447784 0.00544245 0.0013124)
(0.451981 0.000355205 -0.000826452)
(0.452176 0.000572961 -0.000617841)
(0.452777 0.00100294 -9.32192e-05)
(0.453664 0.00171779 0.000386928)
(0.453735 0.002842 0.00105228)
(0.452077 0.00441703 0.00201162)
(0.447041 0.00562309 0.00296426)
(0.0507383 0.000464762 -0.00168656)
(0.0501286 0.000531552 -0.00148476)
(0.0497276 0.000652261 -0.000927233)
(0.0495022 0.000797026 -0.000664565)
(0.0491375 0.000936585 -0.000522778)
(0.0486279 0.00102922 -0.000425681)
(0.0480316 0.00102457 -0.000351787)
(0.0508091 0.000954052 -0.00165737)
(0.0502881 0.00110351 -0.00145178)
(0.049948 0.00136516 -0.000899058)
(0.0497365 0.0016851 -0.000624555)
(0.0493296 0.00200164 -0.000458484)
(0.0487038 0.00222132 -0.000335136)
(0.0479303 0.00221821 -0.000253073)
(0.0509278 0.00125503 -0.00166085)
(0.0505477 0.00148651 -0.00144266)
(0.0503116 0.00188368 -0.000872929)
(0.0501404 0.00239048 -0.000566419)
(0.0496778 0.00292124 -0.000349642)
(0.0488532 0.00333179 -0.00016545)
(0.047741 0.00336964 -5.53984e-05)
(0.051103 0.00139934 -0.00167713)
(0.0509284 0.00172241 -0.00143234)
(0.0508568 0.00228235 -0.000819324)
(0.0507779 0.00303644 -0.000440357)
(0.0502766 0.0039055 -0.000111738)
(0.0491606 0.0046557 0.000221128)
(0.0474138 0.00483082 0.000432267)
(0.0513368 0.00134926 -0.00169055)
(0.0514443 0.00175351 -0.00139671)
(0.0516304 0.00247651 -0.000698532)
(0.0517672 0.00353535 -0.000172169)
(0.0513033 0.00487108 0.000398572)
(0.0497896 0.00619336 0.00112628)
(0.0468541 0.0067166 0.00172396)
(0.0516133 0.00104268 -0.00168953)
(0.0520711 0.00147653 -0.00131576)
(0.0526443 0.00229786 -0.000470124)
(0.0531787 0.00360905 0.000334079)
(0.0529479 0.00547463 0.00147035)
(0.0510383 0.00772616 0.00305062)
(0.0459114 0.00916957 0.00455812)
(0.0518816 0.000453824 -0.00166937)
(0.0527148 0.000784375 -0.00118557)
(0.0537693 0.00146689 -0.000120275)
(0.0549546 0.00269995 0.00123371)
(0.0554526 0.00484614 0.0035014)
(0.0536075 0.00836531 0.0071932)
(0.0445828 0.0123005 0.0114543)
(0.00477859 0.00047675 -0.0016305)
(0.00434639 0.000547025 -0.00149157)
(0.00397266 0.000671904 -0.0012019)
(0.00362816 0.000828902 -0.000993995)
(0.00319036 0.0009885 -0.000841231)
(0.00263391 0.00110177 -0.000714605)
(0.00200284 0.00110347 -0.000604127)
(0.00485335 0.000966409 -0.00164441)
(0.00451198 0.00112719 -0.00149966)
(0.00420574 0.00140586 -0.00120798)
(0.00388894 0.00175966 -0.000989498)
(0.00341694 0.00212949 -0.000814315)
(0.00273394 0.00240811 -0.000659718)
(0.00189026 0.00243025 -0.000537735)
(0.0049832 0.00125794 -0.00168228)
(0.00479476 0.00151599 -0.00152412)
(0.00460744 0.00195936 -0.0012164)
(0.0043533 0.00254429 -0.000968068)
(0.00384302 0.00319581 -0.000734945)
(0.00294415 0.00375088 -0.00049892)
(0.00166672 0.00387986 -0.000329714)
(0.00518139 0.00140375 -0.00173516)
(0.00522642 0.0017787 -0.0015474)
(0.00523849 0.00243314 -0.00119385)
(0.00512823 0.00335013 -0.000861286)
(0.00462751 0.00446542 -0.000482276)
(0.00342445 0.00560727 4.14385e-06)
(0.00124877 0.00615627 0.000389032)
(0.00545743 0.00136478 -0.00178844)
(0.00583959 0.00185861 -0.00154159)
(0.00618283 0.00275321 -0.00108606)
(0.00638723 0.00410871 -0.000546811)
(0.00610353 0.00602167 0.000225493)
(0.00464658 0.00826317 0.00136933)
(0.000450684 0.00979139 0.00265397)
(0.00580263 0.00107334 -0.00182436)
(0.00663239 0.00163833 -0.00147389)
(0.00749283 0.00272021 -0.000816212)
(0.00840003 0.00462319 0.00016267)
(0.00879756 0.00775472 0.00185907)
(0.00728329 0.0122662 0.00487261)
(-0.000992486 0.0165872 0.00903602)
(0.00616239 0.000493423 -0.0018282)
(0.00750383 0.000958269 -0.00132837)
(0.0091723 0.00195733 -0.000325428)
(0.0114328 0.00415713 0.00158375)
(0.0138345 0.00872236 0.00568718)
(0.0141857 0.0187158 0.0152351)
(-0.00165473 0.0341085 0.0309044)
(0.448714 0.000690401 -9.81968e-05)
(0.448354 0.000555818 -7.60277e-05)
(0.448071 0.00041382 -4.91918e-05)
(0.447846 0.00028527 -1.7153e-05)
(0.447649 0.000178321 2.24351e-05)
(0.447442 9.43971e-05 7.1647e-05)
(0.448528 0.00148102 -6.33364e-05)
(0.448126 0.00117423 -5.42831e-05)
(0.447848 0.000862357 -3.68601e-05)
(0.447652 0.000587405 -1.11387e-05)
(0.447491 0.000362473 2.44943e-05)
(0.44732 0.000187534 7.10981e-05)
(0.4482 0.00212907 -1.61406e-05)
(0.447743 0.00163169 -3.11617e-05)
(0.447491 0.00116116 -2.72546e-05)
(0.447353 0.00076721 -9.17085e-06)
(0.447254 0.000455505 2.27801e-05)
(0.447143 0.000218307 6.73244e-05)
(0.447661 0.00276742 6.71605e-05)
(0.447163 0.00201412 2.99725e-06)
(0.446989 0.0013675 -1.43758e-05)
(0.446952 0.000859544 -7.58034e-06)
(0.446947 0.000474489 1.95179e-05)
(0.446919 0.000189141 6.11074e-05)
(0.446804 0.00330617 0.000238154)
(0.446347 0.00223404 6.98305e-05)
(0.446339 0.00142285 6.19021e-06)
(0.446461 0.000830396 -3.07927e-06)
(0.446585 0.00040114 1.61077e-05)
(0.446662 9.4903e-05 5.20174e-05)
(0.445474 0.00351294 0.000501972)
(0.445285 0.00211469 0.000161709)
(0.445587 0.00122269 4.14741e-05)
(0.445931 0.000625791 6.53167e-06)
(0.446212 0.000214252 1.31325e-05)
(0.446401 -7.94748e-05 3.76001e-05)
(0.443511 0.00289687 0.000843105)
(0.444068 0.00140885 0.000267791)
(0.444854 0.000660645 8.53422e-05)
(0.445455 0.000209946 2.13922e-05)
(0.445881 -9.62008e-05 1.18527e-05)
(0.446167 -0.000325392 1.67174e-05)
(0.0474523 0.000899288 -0.000289433)
(0.0469716 0.000716423 -0.000221106)
(0.0465977 0.000528224 -0.000138325)
(0.0463061 0.000360391 -3.80605e-05)
(0.046057 0.000222435 8.17078e-05)
(0.0458062 0.000114984 0.000231933)
(0.0472068 0.00191657 -0.000220101)
(0.046677 0.00150004 -0.000183372)
(0.0463166 0.00108984 -0.000121535)
(0.0460659 0.000733829 -3.34573e-05)
(0.0458656 0.000446495 7.9604e-05)
(0.0456621 0.000224767 0.000226152)
(0.0467524 0.00280449 -9.90728e-05)
(0.046165 0.00211049 -0.000128585)
(0.0458521 0.00148353 -0.000104364)
(0.0456829 0.000966756 -3.48142e-05)
(0.0455675 0.00056424 6.94447e-05)
(0.0454412 0.000260103 0.000211942)
(0.0459583 0.00375254 0.000155907)
(0.0453663 0.00265625 -2.23899e-05)
(0.0451831 0.00176925 -7.1201e-05)
(0.0451572 0.00109459 -3.43037e-05)
(0.0451698 0.000590832 5.54764e-05)
(0.045153 0.00021932 0.000190181)
(0.0445877 0.00462072 0.000691327)
(0.0441868 0.00300375 0.000160043)
(0.0442934 0.00186902 -1.36074e-05)
(0.0445068 0.00106903 -2.74294e-05)
(0.0446942 0.000499053 4.13047e-05)
(0.0448147 9.0499e-05 0.000159952)
(0.042285 0.00502677 0.00153)
(0.0426281 0.0028858 0.000398892)
(0.0432537 0.0016341 6.50499e-05)
(0.04379 0.000815892 -1.13465e-05)
(0.0441931 0.000260427 2.86372e-05)
(0.0444598 -0.000144883 0.000113132)
(0.0385835 0.00450159 0.00222433)
(0.0408787 0.0019869 0.000579658)
(0.0422604 0.000911003 0.000161311)
(0.0431579 0.000285499 1.95776e-05)
(0.0437541 -0.000139835 2.10933e-05)
(0.0441361 -0.00047394 4.06227e-05)
(0.00140623 0.000955146 -0.000498763)
(0.000926227 0.000747228 -0.000378869)
(0.000563484 0.000541964 -0.000235418)
(0.000287202 0.000364224 -6.47052e-05)
(6.29762e-05 0.000220685 0.00013609)
(-0.000142726 0.000110244 0.000382106)
(0.00112426 0.00205556 -0.000464234)
(0.000601284 0.00157197 -0.000373967)
(0.000265124 0.00111944 -0.00024597)
(3.95841e-05 0.000740784 -8.06413e-05)
(-0.000130021 0.000440897 0.000119281)
(-0.000284749 0.000212638 0.000365992)
(0.000569966 0.00309937 -0.000361794)
(1.49745e-05 0.00225251 -0.000350962)
(-0.000241924 0.00153854 -0.0002597)
(-0.000365594 0.000980032 -0.000106526)
(-0.000439768 0.000555348 9.06818e-05)
(-0.000511097 0.000238945 0.00033742)
(-0.000492885 0.00435706 -4.26636e-05)
(-0.000949309 0.0028947 -0.000260902)
(-0.000996664 0.00186091 -0.000259394)
(-0.000932425 0.00111705 -0.000134278)
(-0.000859499 0.000580625 5.51136e-05)
(-0.000814448 0.000186779 0.000296605)
(-0.00267045 0.00564361 0.000777925)
(-0.00247327 0.00332398 -6.16806e-05)
(-0.00201527 0.00198586 -0.000234439)
(-0.00164241 0.00109884 -0.000159093)
(-0.00136675 0.000488675 1.79093e-05)
(-0.00118157 3.9381e-05 0.000243098)
(-0.00669742 0.0060279 0.00212688)
(-0.00452675 0.00314841 0.000177378)
(-0.00318523 0.00175321 -0.000212246)
(-0.00240363 0.000853115 -0.000183851)
(-0.0018963 0.000255358 -1.62127e-05)
(-0.00157882 -0.000221252 0.000162914)
(-0.0130358 0.00600482 0.00347021)
(-0.00593432 0.0021443 0.000135834)
(-0.00393699 0.00102778 -0.000229152)
(-0.00286553 0.000350719 -0.000198272)
(-0.00219833 -0.000118959 -4.07321e-05)
(-0.00183552 -0.000566247 4.33692e-05)
(0.447183 3.20897e-05 0.000138019)
(0.446815 -1.12185e-05 0.000236498)
(0.446242 -4.06693e-05 0.000398904)
(0.445249 -6.14026e-05 0.000700692)
(0.443045 -6.47679e-05 0.00138235)
(0.438904 -3.50559e-05 0.00334896)
(0.442154 -0.000159531 0.00769256)
(0.447095 5.87837e-05 0.000135825)
(0.446753 -2.81994e-05 0.000233925)
(0.446199 -8.51182e-05 0.000397525)
(0.445229 -0.000121331 0.000703008)
(0.443068 -0.000130766 0.00138249)
(0.438827 -0.000101072 0.00333727)
(0.442021 -0.000236045 0.00776386)
(0.446972 4.91004e-05 0.000130734)
(0.446674 -6.28794e-05 0.000229063)
(0.446152 -0.000130823 0.000393783)
(0.445207 -0.000168698 0.000700691)
(0.443066 -0.000185735 0.00137983)
(0.438795 -0.000192316 0.00333155)
(0.441979 -0.000238615 0.00778053)
(0.446819 -6.99744e-06 0.000122616)
(0.446579 -0.000130279 0.000221256)
(0.4461 -0.000197791 0.000387976)
(0.445182 -0.000229957 0.000697031)
(0.443055 -0.000242703 0.00137775)
(0.43878 -0.000249124 0.00333148)
(0.441965 -0.000263189 0.00778523)
(0.446653 -0.000117033 0.000107893)
(0.446485 -0.000234379 0.000207881)
(0.446054 -0.000287075 0.000378349)
(0.445164 -0.000303124 0.000691032)
(0.44305 -0.000302258 0.00137454)
(0.438776 -0.000297468 0.00333079)
(0.441961 -0.000296467 0.00778689)
(0.44649 -0.000282141 8.22039e-05)
(0.446409 -0.000369756 0.000185273)
(0.446031 -0.000389937 0.000362736)
(0.445167 -0.000379089 0.000681542)
(0.443061 -0.000358396 0.00136947)
(0.438785 -0.000339497 0.00332889)
(0.441965 -0.000327895 0.00778691)
(0.446363 -0.000485113 3.5879e-05)
(0.446376 -0.000511681 0.000147263)
(0.446044 -0.000485403 0.000338568)
(0.445196 -0.000442983 0.000667919)
(0.44309 -0.000401725 0.00136256)
(0.438807 -0.000369661 0.0033261)
(0.441974 -0.00035006 0.00778617)
(0.0455095 3.57998e-05 0.000431933)
(0.0451109 -1.8189e-05 0.000718053)
(0.0445426 -5.29331e-05 0.0011614)
(0.0437218 -7.36265e-05 0.00190937)
(0.0424935 -7.89616e-05 0.00334998)
(0.0411037 -6.6996e-05 0.00670874)
(0.0444416 -0.000139101 0.0133844)
(0.0454087 6.2553e-05 0.000424349)
(0.0450464 -4.50673e-05 0.000711246)
(0.0445058 -0.000112734 0.00115775)
(0.0437108 -0.000151822 0.00191155)
(0.0425152 -0.000165954 0.00334629)
(0.0410691 -0.000157421 0.00667776)
(0.0443805 -0.000241415 0.0134408)
(0.0452584 4.38773e-05 0.000408355)
(0.0449545 -9.61716e-05 0.000696273)
(0.0444557 -0.000178254 0.00114621)
(0.0436905 -0.000222407 0.00190337)
(0.0425145 -0.00024356 0.00333717)
(0.0410514 -0.000254884 0.00665935)
(0.0443578 -0.000292327 0.0134565)
(0.0450642 -3.75645e-05 0.000379777)
(0.0448368 -0.000192116 0.000671198)
(0.0443934 -0.000272048 0.00112798)
(0.0436612 -0.000307648 0.00189159)
(0.0425014 -0.000320822 0.00332969)
(0.041038 -0.000326693 0.00665503)
(0.0443461 -0.000338035 0.0134592)
(0.0448488 -0.000195576 0.00033072)
(0.044722 -0.000340252 0.000628139)
(0.0443425 -0.000396737 0.00109788)
(0.0436446 -0.000408009 0.00187304)
(0.0424993 -0.000400812 0.00331953)
(0.0410372 -0.000390776 0.0066513)
(0.0443438 -0.000386584 0.013461)
(0.0446336 -0.000437699 0.000240893)
(0.0446352 -0.000537613 0.000552859)
(0.0443253 -0.000542955 0.00104813)
(0.0436572 -0.00051323 0.00184363)
(0.0425195 -0.000476756 0.00330406)
(0.041053 -0.000446933 0.00664522)
(0.0443507 -0.000429778 0.0134609)
(0.0444627 -0.000747476 6.13628e-05)
(0.0446167 -0.000750234 0.000417524)
(0.0443662 -0.00068042 0.000967484)
(0.0437106 -0.000601975 0.00180023)
(0.0425664 -0.000535283 0.00328289)
(0.0410854 -0.000487198 0.00663715)
(0.0443653 -0.000459905 0.0134601)
(-0.000363388 2.9669e-05 0.000696542)
(-0.000630467 -2.36648e-05 0.00112084)
(-0.000966321 -5.63592e-05 0.00172425)
(-0.00136123 -7.43921e-05 0.00262393)
(-0.00172853 -8.25697e-05 0.00402543)
(-0.00157823 -9.47784e-05 0.00632846)
(0.0010973 -0.000154053 0.00971528)
(-0.000458902 4.74367e-05 0.000681558)
(-0.000686583 -5.9618e-05 0.00110884)
(-0.000992801 -0.000123541 0.0017157)
(-0.00136588 -0.000158353 0.00261795)
(-0.00172493 -0.000175078 0.00401299)
(-0.001614 -0.0001935 0.00629315)
(0.0010599 -0.000264306 0.00972468)
(-0.000610627 1.36367e-05 0.00065457)
(-0.000776049 -0.000124652 0.00108441)
(-0.00103864 -0.0002006 0.0016965)
(-0.00138441 -0.000238565 0.002603)
(-0.00173197 -0.000256729 0.00399806)
(-0.00163382 -0.00027114 0.00627099)
(0.00104145 -0.000300877 0.00971852)
(-0.000810082 -9.31003e-05 0.000605724)
(-0.000887859 -0.000242795 0.00104418)
(-0.00109302 -0.000310253 0.00166792)
(-0.00140732 -0.000334285 0.00258445)
(-0.00174151 -0.000339289 0.00398674)
(-0.00164327 -0.000339911 0.00626418)
(0.00103367 -0.000345473 0.00971776)
(-0.00103768 -0.000297572 0.000521761)
(-0.000991001 -0.000429261 0.000973877)
(-0.00112785 -0.000459399 0.0016209)
(-0.00141089 -0.000449009 0.0025559)
(-0.00173435 -0.000426788 0.00397163)
(-0.001637 -0.000406688 0.00625829)
(0.00103563 -0.00039579 0.00971881)
(-0.00127045 -0.000641136 0.000349175)
(-0.00104853 -0.000697598 0.000841516)
(-0.00111263 -0.000644346 0.00154018)
(-0.00137447 -0.000573532 0.00251034)
(-0.00169818 -0.000511616 0.00394873)
(-0.00161061 -0.000466316 0.00624947)
(0.00104769 -0.000440213 0.00971873)
(-0.00140632 -0.00115118 -8.67216e-05)
(-0.000980795 -0.00101625 0.00056344)
(-0.00100281 -0.0008276 0.00139681)
(-0.001278 -0.00068054 0.00244047)
(-0.00162612 -0.000576803 0.00391684)
(-0.00156336 -0.000508496 0.00623774)
(0.001069 -0.000470307 0.00971836)
(0.452073 -0.000299524 -0.000815072)
(0.452404 -0.000273234 -0.000583201)
(0.45321 -0.000225361 1.28939e-05)
(0.454451 -0.000153223 0.000679007)
(0.455077 -5.90717e-05 0.00180752)
(0.453738 3.67875e-05 0.00389366)
(0.446453 5.7631e-05 0.00684887)
(0.452014 -0.000992154 -0.000817804)
(0.452251 -0.00116679 -0.000603428)
(0.452897 -0.00151681 -6.1982e-05)
(0.453831 -0.00212262 0.000452142)
(0.453927 -0.00311786 0.00117826)
(0.452199 -0.00458121 0.0022402)
(0.44687 -0.00579123 0.00327709)
(0.451859 -0.00153822 -0.000820952)
(0.451875 -0.00181374 -0.000638533)
(0.452251 -0.00233441 -0.000165059)
(0.452842 -0.00312963 0.000200832)
(0.452597 -0.00422148 0.000643516)
(0.450996 -0.00545442 0.00120036)
(0.447531 -0.00606133 0.00160179)
(0.451675 -0.00188666 -0.000817915)
(0.451446 -0.00217486 -0.000662743)
(0.451576 -0.00269205 -0.000238281)
(0.451937 -0.00342076 2.90329e-05)
(0.451586 -0.00430262 0.000301789)
(0.450318 -0.00512354 0.000611135)
(0.448081 -0.00533872 0.000792021)
(0.451503 -0.00204545 -0.000809019)
(0.45106 -0.00229682 -0.000673133)
(0.451 -0.00273143 -0.000279569)
(0.451227 -0.0033121 -7.39191e-05)
(0.450885 -0.0039541 9.96053e-05)
(0.449939 -0.00447499 0.000275772)
(0.448473 -0.00453967 0.000370444)
(0.451364 -0.00205186 -0.000796791)
(0.450752 -0.00224701 -0.000674069)
(0.450557 -0.0025783 -0.000300885)
(0.450711 -0.00300256 -0.000127095)
(0.450418 -0.00344514 -1.30086e-05)
(0.449722 -0.00376989 8.86664e-05)
(0.448733 -0.00378197 0.000138804)
(0.0520257 -0.000401211 -0.00163652)
(0.0530948 -0.000362284 -0.00107175)
(0.0545652 -0.000285083 0.000227628)
(0.056572 -0.000160982 0.00232602)
(0.0586793 1.67794e-05 0.00661826)
(0.0589 0.00023711 0.0162649)
(0.0442158 0.0003493 0.0317993)
(0.0519303 -0.00130661 -0.00164243)
(0.0528312 -0.00157154 -0.00113852)
(0.0539703 -0.00213079 -2.62933e-05)
(0.0552575 -0.00318651 0.00145489)
(0.0558551 -0.00510004 0.00397613)
(0.0539732 -0.00837877 0.00816418)
(0.0444397 -0.0122092 0.0128741)
(0.0516949 -0.00200598 -0.00164564)
(0.05226 -0.00240625 -0.00123929)
(0.0529439 -0.00317531 -0.000333965)
(0.0535892 -0.0044225 0.00061775)
(0.0534151 -0.00624273 0.00203427)
(0.0513202 -0.00850925 0.00405289)
(0.0455406 -0.0100091 0.00583026)
(0.0514267 -0.00244301 -0.0016299)
(0.0516453 -0.0028463 -0.0013028)
(0.0519459 -0.00357545 -0.000543657)
(0.0521789 -0.00465623 9.39427e-05)
(0.051728 -0.00603771 0.000910317)
(0.0500021 -0.00744035 0.0019859)
(0.0464723 -0.00796734 0.0028178)
(0.0511845 -0.00263563 -0.00159796)
(0.0511093 -0.00297871 -0.00132581)
(0.0511259 -0.00357581 -0.000662559)
(0.0511198 -0.0044034 -0.000196211)
(0.050612 -0.00537371 0.000284978)
(0.0493081 -0.00623306 0.000872852)
(0.0470949 -0.00641626 0.00128551)
(0.0509903 -0.0026334 -0.00155736)
(0.0506877 -0.00289592 -0.00132102)
(0.0505139 -0.00334526 -0.000718101)
(0.0503766 -0.0039347 -0.000353859)
(0.0498884 -0.0045866 -4.77866e-05)
(0.0489159 -0.00511853 0.000274998)
(0.0474668 -0.00519377 0.000484017)
(0.00637664 -0.000394738 -0.00180026)
(0.00810844 -0.00034049 -0.00117391)
(0.0106962 -0.000232149 0.00024181)
(0.0151947 -1.34187e-05 0.00360289)
(0.0236996 0.000359572 0.013061)
(0.0365826 0.000986401 0.0447365)
(0.0125957 0.00157325 0.133742)
(0.00622925 -0.00134069 -0.00179163)
(0.00766617 -0.00171643 -0.00125575)
(0.00949864 -0.00255347 -0.00017238)
(0.0120258 -0.00446626 0.00192499)
(0.0148588 -0.00857759 0.00657455)
(0.0157991 -0.0178494 0.0174159)
(0.000528109 -0.0319432 0.0352468)
(0.00591175 -0.00203982 -0.00175965)
(0.00688228 -0.00256123 -0.00135675)
(0.0079395 -0.00357713 -0.000600085)
(0.00913192 -0.00543812 0.000600304)
(0.00984141 -0.00852821 0.00282711)
(0.00840594 -0.0131092 0.00695935)
(-0.000356176 -0.0170828 0.0122091)
(0.00557619 -0.00246374 -0.00169538)
(0.00610867 -0.00295835 -0.00139574)
(0.00661448 -0.00386085 -0.000841136)
(0.00705628 -0.00528342 -0.00010661)
(0.0069933 -0.00734895 0.00106692)
(0.00546968 -0.00978353 0.00302556)
(0.000520383 -0.0110535 0.00523163)
(0.00528661 -0.00264493 -0.00161075)
(0.00546314 -0.0030491 -0.00137987)
(0.00560725 -0.00376065 -0.000946015)
(0.00563615 -0.00478156 -0.000455801)
(0.0052686 -0.00611699 0.000224596)
(0.00402283 -0.00750979 0.00123864)
(0.00121155 -0.00796158 0.00235163)
(0.00506158 -0.00263511 -0.00152008)
(0.00497172 -0.0029362 -0.00133281)
(0.00487501 -0.00345735 -0.000971429)
(0.00469571 -0.00416999 -0.000621848)
(0.00422735 -0.00502161 -0.000206819)
(0.0032479 -0.00586328 0.000357044)
(0.00153789 -0.006066 0.000965577)
(0.441367 -0.000151636 0.00145993)
(0.44308 -0.000267577 0.000394617)
(0.444401 -0.000339589 0.000132254)
(0.445182 -0.000410929 4.00095e-05)
(0.445683 -0.000490479 6.47003e-06)
(0.446017 -0.000571927 -1.70027e-05)
(0.44321 -0.00331829 0.000862834)
(0.443894 -0.0020005 0.000276401)
(0.44472 -0.00137525 0.000103237)
(0.445311 -0.00104462 3.19013e-05)
(0.445726 -0.000865557 -2.19184e-06)
(0.446024 -0.000768384 -3.74499e-05)
(0.445066 -0.00415176 0.000541403)
(0.44501 -0.0028255 0.000186472)
(0.445355 -0.00201044 7.02707e-05)
(0.445692 -0.00148413 1.92875e-05)
(0.445959 -0.00113666 -9.12634e-06)
(0.446174 -0.000900909 -4.61185e-05)
(0.446393 -0.00414242 0.000316082)
(0.446025 -0.00308018 0.000112765)
(0.446059 -0.00229242 3.90269e-05)
(0.446184 -0.00171208 6.63436e-06)
(0.446309 -0.00128115 -1.40388e-05)
(0.446426 -0.000957935 -4.59821e-05)
(0.447298 -0.00380258 0.000153626)
(0.446854 -0.00300909 4.76853e-05)
(0.446722 -0.00232552 7.27258e-06)
(0.446702 -0.00176385 -9.12758e-06)
(0.446713 -0.00130765 -1.93409e-05)
(0.446739 -0.000938102 -3.96275e-05)
(0.447907 -0.00331842 2.98729e-05)
(0.447498 -0.00273839 -2.14769e-05)
(0.447302 -0.00217651 -3.77435e-05)
(0.447201 -0.001671 -3.70104e-05)
(0.447134 -0.00122962 -3.06458e-05)
(0.447085 -0.000848775 -2.98246e-05)
(0.0335499 -0.000175146 0.00399752)
(0.0394552 -0.000342614 0.000836833)
(0.0417403 -0.000429214 0.000304503)
(0.0428738 -0.000524414 8.64471e-05)
(0.0435501 -0.000643184 6.32761e-06)
(0.043969 -0.000779534 -8.96268e-05)
(0.0383334 -0.00489593 0.00223564)
(0.0408673 -0.00269301 0.000592951)
(0.0422346 -0.00179889 0.000236286)
(0.0430639 -0.00134905 6.93113e-05)
(0.0436053 -0.00111757 -1.80148e-05)
(0.0439642 -0.0010066 -0.000158131)
(0.0417872 -0.00567435 0.00153162)
(0.0424477 -0.0037056 0.000447063)
(0.043091 -0.00260406 0.000162433)
(0.0435669 -0.00190712 4.03996e-05)
(0.0439058 -0.00145562 -3.5138e-05)
(0.04415 -0.00115538 -0.000181153)
(0.0440203 -0.00556116 0.000907066)
(0.043867 -0.00401218 0.000280646)
(0.044027 -0.00295816 9.1602e-05)
(0.0442121 -0.00219519 1.12808e-05)
(0.0443594 -0.00163422 -4.60583e-05)
(0.0444786 -0.00121215 -0.000176687)
(0.0454439 -0.00505023 0.000434232)
(0.0450137 -0.00391514 0.000113785)
(0.0449037 -0.00300637 1.20179e-05)
(0.0448899 -0.00226919 -2.81337e-05)
(0.0448901 -0.00166971 -5.92466e-05)
(0.044899 -0.00117615 -0.00015355)
(0.0463368 -0.00439053 6.17361e-05)
(0.0458838 -0.00358514 -9.67931e-05)
(0.0456655 -0.00283862 -0.000129615)
(0.0455432 -0.0021681 -0.000118927)
(0.0454481 -0.00157641 -9.93989e-05)
(0.0453673 -0.00105135 -0.000119688)
(-0.0200176 7.41401e-06 0.0111285)
(-0.00486391 -0.000218556 0.00106807)
(-0.00301694 -0.000282189 0.000182318)
(-0.00210183 -0.000374464 3.62569e-05)
(-0.0015337 -0.000513183 -3.91055e-06)
(-0.00128424 -0.000725812 -0.000140808)
(-0.00977904 -0.00444569 0.00417703)
(-0.0037635 -0.00212398 0.000529905)
(-0.00250785 -0.00144722 0.000146059)
(-0.00184927 -0.001067 3.87838e-05)
(-0.00143906 -0.000889647 -2.21672e-05)
(-0.00128525 -0.000846579 -0.000223056)
(-0.00513994 -0.00482853 0.0017988)
(-0.00275187 -0.00291538 0.000327637)
(-0.00187898 -0.00207393 9.77918e-05)
(-0.00144132 -0.00151021 2.2198e-05)
(-0.0012013 -0.00115062 -3.33603e-05)
(-0.00115007 -0.000926845 -0.000243249)
(-0.00225795 -0.00492804 0.000902267)
(-0.00151023 -0.00325274 0.000193279)
(-0.00112397 -0.00237102 5.48865e-05)
(-0.000920748 -0.00174783 5.02432e-06)
(-0.000834215 -0.00129302 -3.91907e-05)
(-0.000872831 -0.000949473 -0.000232827)
(-0.00048699 -0.00447783 0.000415799)
(-0.000446317 -0.0032479 7.1759e-05)
(-0.000390279 -0.00246333 8.08636e-07)
(-0.000365288 -0.00184609 -2.24479e-05)
(-0.000393014 -0.00134199 -4.79249e-05)
(-0.000493013 -0.000907864 -0.000201151)
(0.00046984 -0.00395902 2.39511e-05)
(0.000311352 -0.00311417 -0.000148952)
(0.000227751 -0.0024516 -0.000158152)
(0.00015725 -0.00185746 -0.000129985)
(6.42408e-05 -0.00131854 -0.000100487)
(-6.69322e-05 -0.000795138 -0.000158433)
(0.446304 -0.00063833 -4.30031e-05)
(0.446407 -0.000604768 9.27872e-05)
(0.446099 -0.00054143 0.000307804)
(0.44525 -0.000476667 0.000651982)
(0.443134 -0.000421996 0.00135504)
(0.438837 -0.000381935 0.00332317)
(0.441988 -0.000357926 0.00778536)
(0.446331 -0.00070975 -8.41262e-05)
(0.446472 -0.000630147 6.01386e-05)
(0.446172 -0.000546698 0.000287428)
(0.445315 -0.000473309 0.00064087)
(0.443185 -0.000415213 0.00134981)
(0.438871 -0.000373858 0.00332135)
(0.442004 -0.000349345 0.0077851)
(0.446443 -0.000736526 -9.87556e-05)
(0.44657 -0.000611423 4.82346e-05)
(0.446255 -0.000514181 0.000279795)
(0.445381 -0.000439911 0.000636787)
(0.443234 -0.00038523 0.00134822)
(0.438904 -0.000347676 0.0033213)
(0.442018 -0.000325693 0.00778573)
(0.446622 -0.000717979 -9.18714e-05)
(0.446695 -0.000558742 5.40574e-05)
(0.446343 -0.000455139 0.000283732)
(0.445444 -0.000385763 0.000639566)
(0.443278 -0.000338923 0.0013504)
(0.438931 -0.000308308 0.00332315)
(0.442031 -0.000290712 0.00778732)
(0.446844 -0.000648813 -6.74335e-05)
(0.446834 -0.000478152 7.4419e-05)
(0.446429 -0.000379136 0.000297699)
(0.445498 -0.00032013 0.000648459)
(0.443312 -0.000283959 0.00135597)
(0.438953 -0.000261743 0.0033267)
(0.44204 -0.000249208 0.00778976)
(0.447084 -0.000539745 -3.216e-05)
(0.446966 -0.000381671 0.000107741)
(0.446502 -0.000298298 0.000320785)
(0.44554 -0.000253431 0.000662706)
(0.443337 -0.000228441 0.00136438)
(0.438967 -0.000214049 0.00333163)
(0.442046 -0.000205977 0.00779286)
(0.0444114 -0.000937665 -0.000289542)
(0.0447078 -0.000865552 0.000206878)
(0.0444731 -0.000749767 0.000859243)
(0.043802 -0.000643716 0.00174785)
(0.0426351 -0.000560463 0.00325952)
(0.0411301 -0.000502715 0.00662902)
(0.0443853 -0.000470327 0.0134599)
(0.0444457 -0.000971061 -0.000462232)
(0.0448136 -0.000859536 8.92568e-05)
(0.044588 -0.000735906 0.000790456)
(0.0438996 -0.00062917 0.00171212)
(0.0427082 -0.000546888 0.00324356)
(0.0411776 -0.000490177 0.00662444)
(0.0444066 -0.000458396 0.0134617)
(0.0445891 -0.000960883 -0.000510844)
(0.0449476 -0.000800132 5.01228e-05)
(0.0447035 -0.00067208 0.000766202)
(0.0439909 -0.000573902 0.00169963)
(0.042775 -0.000501908 0.00323913)
(0.0412206 -0.000453339 0.00662537)
(0.044426 -0.000426268 0.0134661)
(0.0448235 -0.000899382 -0.000478754)
(0.0451062 -0.000702116 7.31173e-05)
(0.0448146 -0.00057621 0.000780379)
(0.04407 -0.000492445 0.00170913)
(0.0428297 -0.000435817 0.00324644)
(0.0412551 -0.000399236 0.00663206)
(0.0444414 -0.000379132 0.0134732)
(0.0451177 -0.000783783 -0.000379845)
(0.0452743 -0.000572414 0.000146266)
(0.0449138 -0.000460451 0.000827713)
(0.0441317 -0.000397256 0.00173815)
(0.0428692 -0.000359088 0.00326427)
(0.0412789 -0.000335963 0.00664385)
(0.0444521 -0.000323471 0.0134825)
(0.0454378 -0.00059984 -0.000212696)
(0.0454321 -0.000417856 0.000269251)
(0.0449906 -0.00033964 0.000906178)
(0.0441719 -0.000302606 0.00178447)
(0.042892 -0.000282934 0.00329093)
(0.0412921 -0.00027182 0.00665969)
(0.044458 -0.000265772 0.0134933)
(-0.00108231 -0.00131189 -0.00114717)
(-0.000626804 -0.00111827 5.52297e-05)
(-0.00076989 -0.000890297 0.00118561)
(-0.00112318 -0.000718123 0.00235263)
(-0.00152502 -0.000599091 0.00388096)
(-0.0015014 -0.000521901 0.0062259)
(0.0010964 -0.000478936 0.00971922)
(-0.00098811 -0.0011124 -0.0015275)
(-0.000421748 -0.000985068 -0.000206221)
(-0.000591367 -0.000816036 0.00105565)
(-0.00098602 -0.000675633 0.00229414)
(-0.00142872 -0.000572449 0.00385708)
(-0.0014403 -0.000503045 0.00621963)
(0.00112385 -0.000463643 0.0097231)
(-0.000854362 -0.000949184 -0.00160333)
(-0.000267084 -0.000823928 -0.000274319)
(-0.000454638 -0.000692976 0.00101517)
(-0.000879083 -0.000588294 0.00227557)
(-0.00135128 -0.000510908 0.00385154)
(-0.0013898 -0.000457965 0.00622193)
(0.00114692 -0.000427416 0.00973095)
(-0.00063433 -0.000782246 -0.00151665)
(-0.000124743 -0.000645229 -0.000222855)
(-0.000351945 -0.000545743 0.00104382)
(-0.000803531 -0.000476965 0.0022932)
(-0.00129732 -0.000428531 0.00386429)
(-0.00135435 -0.000395547 0.00623309)
(0.00116331 -0.00037623 0.00974271)
(-0.00035532 -0.000564859 -0.00128672)
(-2.86101e-06 -0.000441888 -6.26608e-05)
(-0.000283813 -0.000382977 0.0011334)
(-0.000761501 -0.000354735 0.00234286)
(-0.00126889 -0.000337217 0.00389337)
(-0.0013355 -0.000324898 0.00625206)
(0.00117226 -0.000317069 0.00975765)
(-8.09338e-05 -0.000237681 -0.000887867)
(6.45342e-05 -0.000193603 0.000219626)
(-0.000264076 -0.000215508 0.00128309)
(-0.0007575 -0.000237684 0.00242114)
(-0.00126664 -0.000250175 0.00393607)
(-0.00133267 -0.00025552 0.00627716)
(0.00117424 -0.00025698 0.00977475)
(0.451261 -0.00194577 -0.000783258)
(0.450527 -0.00208315 -0.000669306)
(0.450241 -0.00231676 -0.000309392)
(0.450358 -0.00260435 -0.000156964)
(0.450115 -0.00288715 -7.63232e-05)
(0.449596 -0.0030703 -2.60752e-05)
(0.44891 -0.00304006 -1.27538e-05)
(0.451192 -0.00175829 -0.000770313)
(0.450376 -0.00184893 -0.000661411)
(0.450033 -0.00200248 -0.000308875)
(0.45014 -0.00218359 -0.000167265)
(0.44995 -0.00234487 -0.000101403)
(0.449566 -0.00242453 -6.61585e-05)
(0.449082 -0.00235546 -5.76877e-05)
(0.451147 -0.00151891 -0.000758479)
(0.450278 -0.00157693 -0.000652568)
(0.449904 -0.00167237 -0.000303815)
(0.450015 -0.00177915 -0.000167128)
(0.449873 -0.00186326 -0.000107255)
(0.449585 -0.00188444 -7.63055e-05)
(0.449231 -0.00180614 -6.39233e-05)
(0.451119 -0.00125331 -0.000748976)
(0.450219 -0.00128925 -0.000644672)
(0.449829 -0.00134681 -0.000297588)
(0.449949 -0.00140706 -0.000162975)
(0.449845 -0.00144635 -0.000105205)
(0.449623 -0.00143978 -7.49193e-05)
(0.449351 -0.00136816 -5.86702e-05)
(0.451101 -0.000973381 -0.000743579)
(0.450182 -0.000996135 -0.00063977)
(0.449785 -0.00103432 -0.000292839)
(0.449915 -0.0010693 -0.000158606)
(0.44984 -0.00108554 -0.000101233)