/*--------------------------------*- C++ -*----------------------------------*\
  =========                 |
  \\      /  F ield         | OpenFOAM: The Open Source CFD Toolbox
   \\    /   O peration     | Website:  https://openfoam.org
    \\  /    A nd           | Version:  7
     \\/     M anipulation  |
\*---------------------------------------------------------------------------*/
FoamFile
{
    version     2.0;
    format      ascii;
    class       volVectorField;
    location    "3.5";
    object      U;
}
// * * * * * * * * * * * * * * * * * * * * * * * * * * * * * * * * * * * * * //

dimensions      [0 1 -1 0 0 0 0];

internalField   nonuniform List<vector> 
7784
(
(1.13059 -4.54619e-05 -6.38892e-05)
(1.13064 -3.70914e-05 -4.83297e-05)
(1.13069 -2.5021e-05 -2.40195e-05)
(1.13072 -1.56756e-05 -6.40165e-06)
(1.13073 -1.00053e-05 1.20274e-06)
(1.13073 -6.56453e-06 3.13543e-06)
(1.13073 -4.35032e-06 2.84012e-06)
(1.13061 -3.28864e-05 -4.99757e-05)
(1.13066 -2.64428e-05 -3.82701e-05)
(1.1307 -1.81354e-05 -1.90319e-05)
(1.13072 -1.22644e-05 -4.54502e-06)
(1.13073 -8.67585e-06 1.79514e-06)
(1.13073 -6.1963e-06 3.30181e-06)
(1.13073 -4.38286e-06 2.84593e-06)
(1.13062 -1.68035e-05 -4.19466e-05)
(1.13066 -1.4654e-05 -3.21706e-05)
(1.13071 -1.16145e-05 -1.56966e-05)
(1.13073 -9.05959e-06 -3.13383e-06)
(1.13073 -7.05646e-06 2.3198e-06)
(1.13073 -5.36836e-06 3.46829e-06)
(1.13073 -4.01205e-06 2.86372e-06)
(1.13062 -1.07189e-05 -3.8605e-05)
(1.13067 -9.92664e-06 -2.95049e-05)
(1.13071 -8.54128e-06 -1.411e-05)
(1.13073 -7.10311e-06 -2.38943e-06)
(1.13073 -5.7707e-06 2.62546e-06)
(1.13073 -4.54419e-06 3.55908e-06)
(1.13073 -3.5294e-06 2.88022e-06)
(1.13063 -8.03658e-06 -3.74012e-05)
(1.13067 -7.53407e-06 -2.85082e-05)
(1.13071 -6.63907e-06 -1.3484e-05)
(1.13073 -5.65258e-06 -2.08124e-06)
(1.13073 -4.69507e-06 2.7522e-06)
(1.13073 -3.78466e-06 3.57426e-06)
(1.13073 -3.01402e-06 2.87962e-06)
(1.13063 -6.12337e-06 -3.70399e-05)
(1.13067 -5.75237e-06 -2.81981e-05)
(1.13071 -5.12387e-06 -1.32821e-05)
(1.13073 -4.4242e-06 -1.98033e-06)
(1.13073 -3.73029e-06 2.79239e-06)
(1.13073 -3.06091e-06 3.5678e-06)
(1.13073 -2.47421e-06 2.87427e-06)
(1.13063 -4.5604e-06 -3.69647e-05)
(1.13067 -4.29054e-06 -2.81253e-05)
(1.13071 -3.84221e-06 -1.3231e-05)
(1.13073 -3.34159e-06 -1.95445e-06)
(1.13073 -2.84126e-06 2.80223e-06)
(1.13073 -2.35859e-06 3.56099e-06)
(1.13073 -1.924e-06 2.86974e-06)
(0.536434 -8.00737e-05 -0.000160208)
(0.536494 -6.75821e-05 -0.000125951)
(0.536561 -4.84742e-05 -7.27288e-05)
(0.536613 -3.19879e-05 -3.32261e-05)
(0.536645 -2.09042e-05 -1.35678e-05)
(0.536666 -1.37832e-05 -5.41123e-06)
(0.53668 -9.13863e-06 -2.50209e-06)
(0.536454 -6.73241e-05 -0.000134279)
(0.536514 -5.71563e-05 -0.000107691)
(0.536575 -4.22848e-05 -6.3787e-05)
(0.536621 -2.95195e-05 -2.97158e-05)
(0.53665 -2.0501e-05 -1.22012e-05)
(0.536669 -1.42221e-05 -4.84483e-06)
(0.536683 -9.83249e-06 -2.29422e-06)
(0.536472 -4.76514e-05 -0.000117164)
(0.53653 -4.2067e-05 -9.48239e-05)
(0.536588 -3.33351e-05 -5.65585e-05)
(0.53663 -2.5011e-05 -2.62891e-05)
(0.536657 -1.83723e-05 -1.05985e-05)
(0.536674 -1.33241e-05 -4.08124e-06)
(0.536686 -9.55604e-06 -1.94289e-06)
(0.536484 -3.47803e-05 -0.00010855)
(0.536541 -3.15081e-05 -8.79056e-05)
(0.536597 -2.60831e-05 -5.21941e-05)
(0.536637 -2.04893e-05 -2.39125e-05)
(0.536662 -1.56614e-05 -9.34496e-06)
(0.536678 -1.17713e-05 -3.42852e-06)
(0.536689 -8.69405e-06 -1.59248e-06)
(0.536491 -2.5997e-05 -0.000104471)
(0.536548 -2.3812e-05 -8.44807e-05)
(0.536604 -2.02058e-05 -4.98534e-05)
(0.536643 -1.63664e-05 -2.25077e-05)
(0.536666 -1.28972e-05 -8.53196e-06)
(0.536681 -9.97344e-06 -2.97384e-06)
(0.536691 -7.5469e-06 -1.31633e-06)
(0.536495 -1.9217e-05 -0.000102606)
(0.536552 -1.77247e-05 -8.2858e-05)
(0.536608 -1.53073e-05 -4.86636e-05)
(0.536646 -1.26866e-05 -2.1724e-05)
(0.536669 -1.02326e-05 -8.0312e-06)
(0.536684 -8.0825e-06 -2.66554e-06)
(0.536693 -6.23769e-06 -1.1114e-06)
(0.536498 -1.3822e-05 -0.000101741)
(0.536555 -1.28186e-05 -8.20726e-05)
(0.53661 -1.12081e-05 -4.80445e-05)
(0.536649 -9.43905e-06 -2.12782e-05)
(0.536671 -7.73951e-06 -7.71973e-06)
(0.536685 -6.20693e-06 -2.45597e-06)
(0.536695 -4.86186e-06 -9.63394e-07)
(0.203765 -7.00625e-05 -0.000210709)
(0.203797 -6.059e-05 -0.000180044)
(0.203838 -4.55431e-05 -0.000126481)
(0.203881 -3.15878e-05 -7.9394e-05)
(0.203915 -2.1461e-05 -4.86746e-05)
(0.203942 -1.45461e-05 -3.04286e-05)
(0.203962 -9.83311e-06 -1.98191e-05)
(0.203779 -6.45815e-05 -0.000190326)
(0.203811 -5.61965e-05 -0.000165194)
(0.203849 -4.33157e-05 -0.000118173)
(0.203888 -3.13039e-05 -7.52152e-05)
(0.20392 -2.21941e-05 -4.64798e-05)
(0.203946 -1.55973e-05 -2.92306e-05)
(0.203965 -1.08723e-05 -1.91658e-05)
(0.203793 -5.22616e-05 -0.000173248)
(0.203825 -4.63367e-05 -0.000151762)
(0.203861 -3.71386e-05 -0.000109605)
(0.203897 -2.81227e-05 -7.0275e-05)
(0.203927 -2.07547e-05 -4.36569e-05)
(0.203951 -1.50812e-05 -2.76055e-05)
(0.203968 -1.08141e-05 -1.82248e-05)
(0.203803 -4.09756e-05 -0.000162344)
(0.203835 -3.68701e-05 -0.000142667)
(0.203871 -3.04458e-05 -0.00010326)
(0.203905 -2.38895e-05 -6.6274e-05)
(0.203933 -1.82226e-05 -4.12107e-05)
(0.203955 -1.36381e-05 -2.61101e-05)
(0.203972 -1.00276e-05 -1.73125e-05)
(0.20381 -3.16126e-05 -0.000155876)
(0.203842 -2.87188e-05 -0.000137099)
(0.203878 -2.42301e-05 -9.91465e-05)
(0.203911 -1.95383e-05 -6.34997e-05)
(0.203938 -1.53151e-05 -3.9399e-05)
(0.203959 -1.17527e-05 -2.49279e-05)
(0.203975 -8.83024e-06 -1.65533e-05)
(0.203815 -2.37854e-05 -0.000152188)
(0.203847 -2.17675e-05 -0.000133853)
(0.203882 -1.86715e-05 -9.66299e-05)
(0.203915 -1.53794e-05 -6.1693e-05)
(0.203942 -1.23181e-05 -3.81427e-05)
(0.203962 -9.64341e-06 -2.40607e-05)
(0.203977 -7.3754e-06 -1.59674e-05)
(0.203818 -1.72666e-05 -0.000150085)
(0.20385 -1.58949e-05 -0.00013196)
(0.203885 -1.38018e-05 -9.50997e-05)
(0.203918 -1.15462e-05 -6.05354e-05)
(0.203944 -9.39669e-06 -3.72953e-05)
(0.203964 -7.46786e-06 -2.34498e-05)
(0.203979 -5.79027e-06 -1.55364e-05)
(1.13073 -2.91269e-06 1.95639e-06)
(1.13073 -1.94388e-06 1.06425e-06)
(1.13073 -1.24575e-06 2.92642e-07)
(1.13073 -7.03886e-07 -4.00458e-07)
(1.13073 -2.44618e-07 -1.12954e-06)
(1.13073 1.9575e-07 -2.02759e-06)
(1.13073 -3.1058e-06 1.92046e-06)
(1.13073 -2.18146e-06 1.03168e-06)
(1.13073 -1.4751e-06 2.74943e-07)
(1.13073 -9.11843e-07 -4.02854e-07)
(1.13073 -4.41733e-07 -1.11802e-06)
(1.13073 -2.18527e-08 -2.00276e-06)
(1.13073 -2.97117e-06 1.90408e-06)
(1.13073 -2.16359e-06 1.01973e-06)
(1.13073 -1.51557e-06 2.70962e-07)
(1.13073 -9.87184e-07 -3.99356e-07)
(1.13073 -5.48105e-07 -1.1063e-06)
(1.13073 -1.74955e-07 -1.98338e-06)
(1.13073 -2.69264e-06 1.90136e-06)
(1.13073 -2.01019e-06 1.02194e-06)
(1.13073 -1.44533e-06 2.7651e-07)
(1.13073 -9.76604e-07 -3.91685e-07)
(1.13073 -5.84845e-07 -1.09564e-06)
(1.13073 -2.54026e-07 -1.96758e-06)
(1.13073 -2.34842e-06 1.89981e-06)
(1.13073 -1.78567e-06 1.02646e-06)
(1.13073 -1.30908e-06 2.83672e-07)
(1.13073 -9.07389e-07 -3.83257e-07)
(1.13073 -5.6768e-07 -1.08522e-06)
(1.13073 -2.77538e-07 -1.95399e-06)
(1.13073 -1.95613e-06 1.89864e-06)
(1.13073 -1.50861e-06 1.03146e-06)
(1.13073 -1.122e-06 2.90573e-07)
(1.13073 -7.91763e-07 -3.75502e-07)
(1.13073 -5.09008e-07 -1.07601e-06)
(1.13073 -2.64281e-07 -1.94167e-06)
(1.13073 -1.53676e-06 1.89863e-06)
(1.13073 -1.19734e-06 1.0369e-06)
(1.13073 -8.99983e-07 2.96697e-07)
(1.13073 -6.43068e-07 -3.68954e-07)
(1.13073 -4.20472e-07 -1.06848e-06)
(1.13073 -2.25068e-07 -1.93204e-06)
(0.536691 -6.05729e-06 -1.73912e-06)
(0.536698 -3.9363e-06 -1.73217e-06)
(0.536702 -2.37956e-06 -1.99265e-06)
(0.536705 -1.13597e-06 -2.43893e-06)
(0.536707 -2.40231e-08 -3.14267e-06)
(0.536708 1.12257e-06 -4.19625e-06)
(0.536692 -6.75117e-06 -1.67355e-06)
(0.536699 -4.53061e-06 -1.71029e-06)
(0.536703 -2.84886e-06 -1.97927e-06)
(0.536706 -1.48836e-06 -2.42231e-06)
(0.536708 -2.86385e-07 -3.11826e-06)
(0.536709 9.03364e-07 -4.17379e-06)
(0.536694 -6.76163e-06 -1.50169e-06)
(0.5367 -4.65233e-06 -1.61418e-06)
(0.536704 -3.0076e-06 -1.92088e-06)
(0.536707 -1.6569e-06 -2.38455e-06)
(0.536709 -4.65968e-07 -3.09344e-06)
(0.536709 6.79803e-07 -4.16609e-06)
(0.536697 -6.30755e-06 -1.30217e-06)
(0.536702 -4.43443e-06 -1.48993e-06)
(0.536706 -2.93214e-06 -1.84287e-06)
(0.536708 -1.67701e-06 -2.33714e-06)
(0.53671 -5.65852e-07 -3.06876e-06)
(0.53671 4.92397e-07 -4.16333e-06)
(0.536699 -5.58936e-06 -1.12739e-06)
(0.536704 -4.00205e-06 -1.37387e-06)
(0.536707 -2.69582e-06 -1.76694e-06)
(0.536709 -1.58529e-06 -2.28974e-06)
(0.536711 -5.94706e-07 -3.04318e-06)
(0.536711 3.45407e-07 -4.15954e-06)
(0.5367 -4.69792e-06 -9.87844e-07)
(0.536705 -3.41388e-06 -1.27618e-06)
(0.536708 -2.33434e-06 -1.70083e-06)
(0.53671 -1.40187e-06 -2.24725e-06)
(0.536712 -5.63586e-07 -3.01934e-06)
(0.536712 2.31562e-07 -4.15324e-06)
(0.536702 -3.70881e-06 -8.81641e-07)
(0.536706 -2.72624e-06 -1.19869e-06)
(0.536709 -1.88569e-06 -1.64722e-06)
(0.536711 -1.15018e-06 -2.21198e-06)
(0.536712 -4.84247e-07 -2.99884e-06)
(0.536713 1.47515e-07 -4.14629e-06)
(0.203977 -6.5842e-06 -1.34904e-05)
(0.203987 -4.2634e-06 -9.40788e-06)
(0.203993 -2.50173e-06 -6.5376e-06)
(0.203996 -1.04481e-06 -4.3735e-06)
(0.203996 3.07525e-07 -2.61012e-06)
(0.203992 1.73577e-06 -9.11849e-07)
(0.203979 -7.4786e-06 -1.313e-05)
(0.203988 -4.97126e-06 -9.20413e-06)
(0.203994 -3.02424e-06 -6.42452e-06)
(0.203997 -1.40164e-06 -4.31834e-06)
(0.203996 8.70492e-08 -2.59803e-06)
(0.203993 1.61201e-06 -9.62072e-07)
(0.203981 -7.61432e-06 -1.25811e-05)
(0.20399 -5.16649e-06 -8.88276e-06)
(0.203995 -3.22105e-06 -6.24194e-06)
(0.203998 -1.58128e-06 -4.22982e-06)
(0.203998 -8.38212e-08 -2.58699e-06)
(0.203994 1.41978e-06 -1.03882e-06)
(0.203984 -7.21015e-06 -1.20206e-05)
(0.203992 -4.98299e-06 -8.54157e-06)
(0.203997 -3.17041e-06 -6.04207e-06)
(0.203999 -1.62163e-06 -4.1299e-06)
(0.203999 -2.06058e-07 -2.57056e-06)
(0.203996 1.19694e-06 -1.11244e-06)
(0.203986 -6.46651e-06 -1.15327e-05)
(0.203994 -4.54185e-06 -8.23247e-06)
(0.203999 -2.93982e-06 -5.85471e-06)
(0.204001 -1.55167e-06 -4.03226e-06)
(0.204 -2.78585e-07 -2.54893e-06)
(0.203997 9.71223e-07 -1.17003e-06)
(0.203988 -5.48429e-06 -1.11399e-05)
(0.203996 -3.9045e-06 -7.97473e-06)
(0.204 -2.56337e-06 -5.69346e-06)
(0.204002 -1.38637e-06 -3.94483e-06)
(0.204001 -3.02789e-07 -2.525e-06)
(0.203998 7.55137e-07 -1.21051e-06)
(0.20399 -4.35751e-06 -1.08407e-05)
(0.203997 -3.1358e-06 -7.77292e-06)
(0.204001 -2.08182e-06 -5.56372e-06)
(0.204003 -1.1469e-06 -3.87212e-06)
(0.204002 -2.8289e-07 -2.50173e-06)
(0.203999 5.57675e-07 -1.23673e-06)
(1.13074 6.66449e-07 -3.20445e-06)
(1.13074 1.24823e-06 -4.6862e-06)
(1.13075 2.0434e-06 -5.98978e-06)
(1.13075 3.388e-06 -4.63857e-06)
(1.13074 6.84779e-06 6.415e-06)
(1.1307 1.4839e-05 3.58294e-05)
(1.13066 2.36223e-05 7.98146e-05)
(1.13074 3.73594e-07 -3.17382e-06)
(1.13074 7.82193e-07 -4.65734e-06)
(1.13075 1.23296e-06 -6.01835e-06)
(1.13075 1.86672e-06 -4.98514e-06)
(1.13074 3.8343e-06 4.99226e-06)
(1.1307 9.51575e-06 3.18685e-05)
(1.13066 1.64175e-05 7.28775e-05)
(1.13074 1.50291e-07 -3.15054e-06)
(1.13074 4.38762e-07 -4.63645e-06)
(1.13075 7.07534e-07 -6.04649e-06)
(1.13075 1.00717e-06 -5.27026e-06)
(1.13075 1.78801e-06 3.96245e-06)
(1.1307 4.03388e-06 2.93494e-05)
(1.13066 6.93356e-06 6.88346e-05)
(1.13074 2.71553e-08 -3.1309e-06)
(1.13074 2.67123e-07 -4.61761e-06)
(1.13075 4.82849e-07 -6.04188e-06)
(1.13075 7.11352e-07 -5.37332e-06)
(1.13075 1.19476e-06 3.51052e-06)
(1.1307 2.33021e-06 2.82562e-05)
(1.13066 3.77657e-06 6.71196e-05)
(1.13074 -2.83477e-08 -3.11069e-06)
(1.13074 1.90673e-07 -4.59083e-06)
(1.13075 3.94538e-07 -6.01319e-06)
(1.13075 6.21425e-07 -5.37412e-06)
(1.13075 1.01958e-06 3.37226e-06)
(1.1307 1.75892e-06 2.78806e-05)
(1.13067 2.63797e-06 6.65208e-05)
(1.13074 -4.84826e-08 -3.0922e-06)
(1.13074 1.48948e-07 -4.56411e-06)
(1.13075 3.39446e-07 -5.98205e-06)
(1.13075 5.56765e-07 -5.347e-06)
(1.13075 8.84236e-07 3.35231e-06)
(1.1307 1.39386e-06 2.77849e-05)
(1.13067 1.95782e-06 6.63591e-05)
(1.13074 -4.92517e-08 -3.07835e-06)
(1.13074 1.17099e-07 -4.54205e-06)
(1.13075 2.8182e-07 -5.95726e-06)
(1.13075 4.7082e-07 -5.31975e-06)
(1.13075 7.29975e-07 3.36563e-06)
(1.13071 1.08741e-06 2.77782e-05)
(1.13067 1.45761e-06 6.63391e-05)
(0.536707 2.47017e-06 -5.54966e-06)
(0.536705 4.29169e-06 -6.55419e-06)
(0.536699 6.97672e-06 -4.64847e-06)
(0.536686 1.1419e-05 7.35954e-06)
(0.536653 1.9977e-05 4.42282e-05)
(0.536596 3.40403e-05 0.000118461)
(0.536568 4.6138e-05 0.000208874)
(0.536708 2.21574e-06 -5.54988e-06)
(0.536706 3.86663e-06 -6.64244e-06)
(0.5367 6.12427e-06 -5.01846e-06)
(0.536688 9.55643e-06 6.06296e-06)
(0.536657 1.60322e-05 4.02393e-05)
(0.536602 2.72121e-05 0.000108774)
(0.536571 3.73869e-05 0.000193157)
(0.536709 1.89371e-06 -5.5806e-06)
(0.536707 3.32235e-06 -6.77497e-06)
(0.536701 5.17375e-06 -5.44534e-06)
(0.53669 7.75812e-06 4.79301e-06)
(0.536661 1.19189e-05 3.69447e-05)
(0.536606 1.83444e-05 0.000101921)
(0.536574 2.42155e-05 0.000182993)
(0.53671 1.58635e-06 -5.61392e-06)
(0.536708 2.81689e-06 -6.87878e-06)
(0.536703 4.33974e-06 -5.74392e-06)
(0.536692 6.34851e-06 4.00781e-06)
(0.536663 9.21141e-06 3.50848e-05)
(0.536609 1.31625e-05 9.83578e-05)
(0.536577 1.66759e-05 0.000177958)
(0.536711 1.3043e-06 -5.6376e-06)
(0.536709 2.35465e-06 -6.94711e-06)
(0.536704 3.59143e-06 -5.91354e-06)
(0.536693 5.15136e-06 3.59919e-06)
(0.536665 7.20264e-06 3.41692e-05)
(0.536612 9.80025e-06 9.66925e-05)
(0.536579 1.20422e-05 0.00017567)
(0.536712 1.0353e-06 -5.65295e-06)
(0.53671 1.90201e-06 -6.99219e-06)
(0.536705 2.87965e-06 -6.00744e-06)
(0.536695 4.06338e-06 3.39387e-06)
(0.536667 5.52478e-06 3.37399e-05)
(0.536613 7.24911e-06 9.59554e-05)
(0.536581 8.69627e-06 0.000174691)
(0.536713 7.8148e-07 -5.66131e-06)
(0.536711 1.45899e-06 -7.02312e-06)
(0.536706 2.19963e-06 -6.06185e-06)
(0.536696 3.06754e-06 3.2877e-06)
(0.536668 4.08951e-06 3.35358e-05)
(0.536615 5.2312e-06 9.56285e-05)
(0.536582 6.16391e-06 0.000174276)
(0.203985 3.44968e-06 1.29434e-06)
(0.203974 5.74472e-06 5.55725e-06)
(0.203955 9.04662e-06 1.56916e-05)
(0.203928 1.41121e-05 3.95486e-05)
(0.203889 2.23012e-05 8.9102e-05)
(0.203849 3.31682e-05 0.000169931)
(0.203841 4.06848e-05 0.000253024)
(0.203986 3.36039e-06 1.14748e-06)
(0.203975 5.5829e-06 5.20968e-06)
(0.203957 8.61177e-06 1.49118e-05)
(0.203931 1.29814e-05 3.77568e-05)
(0.203893 1.98231e-05 8.47737e-05)
(0.203853 2.91364e-05 0.000160652)
(0.203843 3.59518e-05 0.000238862)
(0.203988 3.08683e-06 9.39063e-07)
(0.203976 5.11664e-06 4.75414e-06)
(0.203959 7.74286e-06 1.39487e-05)
(0.203934 1.13049e-05 3.57256e-05)
(0.203897 1.63376e-05 8.05577e-05)
(0.203857 2.27399e-05 0.000152924)
(0.203846 2.76836e-05 0.000228006)
(0.203989 2.71146e-06 7.41539e-07)
(0.203978 4.48991e-06 4.3519e-06)
(0.203961 6.69104e-06 1.31456e-05)
(0.203937 9.52748e-06 3.41568e-05)
(0.203901 1.32281e-05 7.76152e-05)
(0.203861 1.76258e-05 0.000148009)
(0.203849 2.10465e-05 0.00022147)
(0.203991 2.29145e-06 5.81948e-07)
(0.20398 3.79135e-06 4.03948e-06)
(0.203963 5.58776e-06 1.25684e-05)
(0.203939 7.7912e-06 3.31079e-05)
(0.203904 1.04967e-05 7.57912e-05)
(0.203864 1.35399e-05 0.000145143)
(0.203851 1.5884e-05 0.000217777)
(0.203992 1.85432e-06 4.62281e-07)
(0.203981 3.06709e-06 3.81084e-06)
(0.203965 4.4813e-06 1.21763e-05)
(0.203941 6.14216e-06 3.24446e-05)
(0.203906 8.08063e-06 7.47162e-05)
(0.203866 1.01623e-05 0.000143548)
(0.203853 1.17437e-05 0.000215782)
(0.203993 1.42109e-06 3.78382e-07)
(0.203982 2.3513e-06 3.64905e-06)
(0.203966 3.41248e-06 1.19155e-05)
(0.203943 4.6175e-06 3.20295e-05)
(0.203908 5.96974e-06 7.40843e-05)
(0.203868 7.36914e-06 0.00014266)
(0.203855 8.4162e-06 0.000214706)
(1.13063 -3.17664e-06 -3.6967e-05)
(1.13067 -2.98992e-06 -2.81189e-05)
(1.13071 -2.68312e-06 -1.32231e-05)
(1.13073 -2.34141e-06 -1.95004e-06)
(1.13073 -2.00003e-06 2.8037e-06)
(1.13073 -1.67157e-06 3.5564e-06)
(1.13073 -1.37223e-06 2.86655e-06)
(1.13063 -1.87705e-06 -3.69811e-05)
(1.13068 -1.76654e-06 -2.81248e-05)
(1.13071 -1.58671e-06 -1.32243e-05)
(1.13073 -1.38718e-06 -1.9501e-06)
(1.13074 -1.18816e-06 2.80375e-06)
(1.13073 -9.96657e-07 3.55345e-06)
(1.13073 -8.21716e-07 2.865e-06)
(1.13063 -6.1996e-07 -3.69898e-05)
(1.13068 -5.83147e-07 -2.81292e-05)
(1.13072 -5.23828e-07 -1.32258e-05)
(1.13073 -4.58249e-07 -1.95045e-06)
(1.13074 -3.92914e-07 2.80379e-06)
(1.13073 -3.30054e-07 3.55217e-06)
(1.13073 -2.72563e-07 2.86438e-06)
(1.13063 6.23279e-07 -3.69898e-05)
(1.13068 5.87242e-07 -2.81292e-05)
(1.13072 5.28166e-07 -1.32258e-05)
(1.13073 4.62476e-07 -1.95046e-06)
(1.13074 3.96905e-07 2.80377e-06)
(1.13073 3.33756e-07 3.55216e-06)
(1.13073 2.75968e-07 2.86437e-06)
(1.13063 1.88044e-06 -3.69811e-05)
(1.13068 1.77074e-06 -2.81249e-05)
(1.13071 1.59117e-06 -1.32244e-05)
(1.13073 1.39152e-06 -1.95015e-06)
(1.13074 1.19223e-06 2.80371e-06)
(1.13073 1.00042e-06 3.55342e-06)
(1.13073 8.25162e-07 2.86498e-06)
(1.13063 3.18016e-06 -3.69671e-05)
(1.13067 2.99435e-06 -2.81189e-05)
(1.13071 2.68783e-06 -1.32232e-05)
(1.13073 2.34597e-06 -1.95013e-06)
(1.13073 2.0043e-06 2.80362e-06)
(1.13073 1.67546e-06 3.55634e-06)
(1.13073 1.37576e-06 2.86651e-06)
(0.5365 -9.34123e-06 -0.000101316)
(0.536557 -8.69517e-06 -8.16697e-05)
(0.536612 -7.66397e-06 -4.77065e-05)
(0.53665 -6.52214e-06 -2.10174e-05)
(0.536673 -5.40725e-06 -7.52551e-06)
(0.536687 -4.38276e-06 -2.31716e-06)
(0.536696 -3.46839e-06 -8.61191e-07)
(0.5365 -5.40814e-06 -0.000101103)
(0.536558 -5.04511e-06 -8.14606e-05)
(0.536613 -4.46826e-06 -4.75235e-05)
(0.536651 -3.82684e-06 -2.08697e-05)
(0.536674 -3.19445e-06 -7.41083e-06)
(0.536687 -2.60676e-06 -2.23238e-06)
(0.536697 -2.07595e-06 -7.96871e-07)
(0.536501 -1.76919e-06 -0.000101012)
(0.536558 -1.6517e-06 -8.13696e-05)
(0.536613 -1.4659e-06 -4.74419e-05)
(0.536652 -1.25905e-06 -2.08022e-05)
(0.536674 -1.05421e-06 -7.35726e-06)
(0.536688 -8.62842e-07 -2.19204e-06)
(0.536697 -6.89023e-07 -7.6585e-07)
(0.536501 1.77638e-06 -0.000101012)
(0.536558 1.65998e-06 -8.13697e-05)
(0.536613 1.47434e-06 -4.7442e-05)
(0.536652 1.26715e-06 -2.08023e-05)
(0.536674 1.06178e-06 -7.35732e-06)
(0.536688 8.69814e-07 -2.19209e-06)
(0.536697 6.9539e-07 -7.65894e-07)
(0.5365 5.4155e-06 -0.000101103)
(0.536558 5.0536e-06 -8.14608e-05)
(0.536613 4.47692e-06 -4.75237e-05)
(0.536651 3.83514e-06 -2.08699e-05)
(0.536674 3.20216e-06 -7.41102e-06)
(0.536687 2.61384e-06 -2.23253e-06)
(0.536697 2.08238e-06 -7.97005e-07)
(0.5365 9.3489e-06 -0.000101316)
(0.536557 8.7041e-06 -8.167e-05)
(0.536612 7.6731e-06 -4.77069e-05)
(0.53665 6.53084e-06 -2.10178e-05)
(0.536673 5.41527e-06 -7.52584e-06)
(0.536687 4.39004e-06 -2.31743e-06)
(0.536696 3.47494e-06 -8.6142e-07)
(0.203819 -1.17149e-05 -0.000148872)
(0.203852 -1.08298e-05 -0.00013085)
(0.203887 -9.4831e-06 -9.41727e-05)
(0.20392 -8.01821e-06 -5.98069e-05)
(0.203946 -6.59852e-06 -3.67417e-05)
(0.203966 -5.30032e-06 -2.30374e-05)
(0.203981 -4.15023e-06 -1.52359e-05)
(0.203821 -6.79266e-06 -0.000148199)
(0.203853 -6.29618e-06 -0.000130226)
(0.203889 -5.54221e-06 -9.3641e-05)
(0.203921 -4.71738e-06 -5.93783e-05)
(0.203947 -3.90947e-06 -3.64076e-05)
(0.203967 -3.16172e-06 -2.27827e-05)
(0.203982 -2.49129e-06 -1.50465e-05)
(0.203821 -2.22344e-06 -0.000147897)
(0.203854 -2.06315e-06 -0.000129944)
(0.203889 -1.82038e-06 -9.33979e-05)
(0.203922 -1.55418e-06 -5.91795e-05)
(0.203948 -1.29214e-06 -3.62503e-05)
(0.203967 -1.0482e-06 -2.26611e-05)
(0.203982 -8.28214e-07 -1.49551e-05)
(0.203821 2.23191e-06 -0.000147897)
(0.203854 2.07256e-06 -0.000129944)
(0.203889 1.8298e-06 -9.33981e-05)
(0.203922 1.56314e-06 -5.91796e-05)
(0.203948 1.30045e-06 -3.62504e-05)
(0.203967 1.05581e-06 -2.26612e-05)
(0.203982 8.35126e-07 -1.49551e-05)
(0.203821 6.80131e-06 -0.000148199)
(0.203853 6.30581e-06 -0.000130226)
(0.203889 5.55186e-06 -9.36415e-05)
(0.203921 4.72653e-06 -5.93788e-05)
(0.203947 3.91792e-06 -3.6408e-05)
(0.203967 3.16942e-06 -2.2783e-05)
(0.203982 2.49825e-06 -1.50468e-05)
(0.203819 1.1724e-05 -0.000148873)
(0.203852 1.08399e-05 -0.00013085)
(0.203887 9.49322e-06 -9.41735e-05)
(0.20392 8.02775e-06 -5.98077e-05)
(0.203946 6.60726e-06 -3.67424e-05)
(0.203966 5.30821e-06 -2.3038e-05)
(0.203981 4.1573e-06 -1.52364e-05)
(1.13073 -1.10354e-06 1.8992e-06)
(1.13073 -8.65357e-07 1.04096e-06)
(1.13073 -6.55531e-07 3.01414e-07)
(1.13073 -4.72357e-07 -3.63953e-07)
(1.13073 -3.12062e-07 -1.06284e-06)
(1.13073 -1.69694e-07 -1.92505e-06)
(1.13073 -6.63449e-07 1.89969e-06)
(1.13073 -5.22219e-07 1.04322e-06)
(1.13073 -3.97536e-07 3.04509e-07)
(1.13073 -2.87882e-07 -3.60614e-07)
(1.13073 -1.91248e-07 -1.05911e-06)
(1.13073 -1.04747e-07 -1.92052e-06)
(1.13073 -2.20381e-07 1.89994e-06)
(1.13073 -1.7369e-07 1.04428e-06)
(1.13073 -1.32385e-07 3.06026e-07)
(1.13073 -9.59403e-08 -3.58954e-07)
(1.13073 -6.37049e-08 -1.05727e-06)
(1.13073 -3.47298e-08 -1.91831e-06)
(1.13073 2.23498e-07 1.89994e-06)
(1.13073 1.7654e-07 1.04428e-06)
(1.13073 1.35001e-07 3.06018e-07)
(1.13073 9.8358e-08 -3.58962e-07)
(1.13073 6.59612e-08 -1.05727e-06)
(1.13073 3.68623e-08 -1.91831e-06)
(1.13073 6.66589e-07 1.89967e-06)
(1.13073 5.2508e-07 1.0432e-06)
(1.13073 4.00154e-07 3.04485e-07)
(1.13073 2.90295e-07 -3.60635e-07)
(1.13073 1.93497e-07 -1.05913e-06)
(1.13073 1.06871e-07 -1.92054e-06)
(1.13073 1.10672e-06 1.89916e-06)
(1.13073 8.68238e-07 1.04092e-06)
(1.13073 6.58147e-07 3.01375e-07)
(1.13073 4.74758e-07 -3.63987e-07)
(1.13073 3.14295e-07 -1.06287e-06)
(1.13073 1.718e-07 -1.92507e-06)
(0.536702 -2.67015e-06 -8.0562e-07)
(0.536707 -1.97946e-06 -1.14204e-06)
(0.53671 -1.38025e-06 -1.60717e-06)
(0.536712 -8.51075e-07 -2.18517e-06)
(0.536713 -3.69283e-07 -2.98294e-06)
(0.536713 8.81606e-08 -4.14029e-06)
(0.536703 -1.60763e-06 -7.56868e-07)
(0.536707 -1.19828e-06 -1.10539e-06)
(0.53671 -8.39726e-07 -1.58074e-06)
(0.536712 -5.21172e-07 -2.16721e-06)
(0.536713 -2.30046e-07 -2.97211e-06)
(0.536714 4.65596e-08 -4.13594e-06)
(0.536703 -5.34869e-07 -7.33105e-07)
(0.536708 -3.99433e-07 -1.0874e-06)
(0.53671 -2.80277e-07 -1.56765e-06)
(0.536712 -1.7407e-07 -2.15825e-06)
(0.536713 -7.68071e-08 -2.96665e-06)
(0.536714 1.56622e-08 -4.13369e-06)
(0.536703 5.40663e-07 -7.33144e-07)
(0.536708 4.04712e-07 -1.08744e-06)
(0.53671 2.85115e-07 -1.56769e-06)
(0.536712 1.78545e-07 -2.15828e-06)
(0.536713 8.09998e-08 -2.96668e-06)
(0.536714 -1.1671e-08 -4.13371e-06)
(0.536703 1.61346e-06 -7.56985e-07)
(0.536707 1.20356e-06 -1.10549e-06)
(0.53671 8.44556e-07 -1.58084e-06)
(0.536712 5.25632e-07 -2.1673e-06)
(0.536713 2.34221e-07 -2.97219e-06)
(0.536714 -4.25814e-08 -4.13601e-06)
(0.536702 2.67603e-06 -8.05819e-07)
(0.536707 1.98475e-06 -1.14222e-06)
(0.53671 1.38506e-06 -1.60733e-06)
(0.536712 8.55502e-07 -2.18531e-06)
(0.536713 3.73429e-07 -2.98308e-06)
(0.536713 -8.4207e-08 -4.14041e-06)
(0.203991 -3.15071e-06 -1.06267e-05)
(0.203998 -2.28539e-06 -7.62518e-06)
(0.204002 -1.52967e-06 -5.46693e-06)
(0.204004 -8.53886e-07 -3.81657e-06)
(0.204003 -2.27388e-07 -2.48242e-06)
(0.204 3.80735e-07 -1.253e-06)
(0.203992 -1.90199e-06 -1.04893e-05)
(0.203999 -1.38668e-06 -7.52863e-06)
(0.204003 -9.32943e-07 -5.40292e-06)
(0.204004 -5.24984e-07 -3.77922e-06)
(0.204004 -1.45916e-07 -2.46859e-06)
(0.204 2.21503e-07 -1.26221e-06)
(0.203992 -6.33769e-07 -1.04222e-05)
(0.203999 -4.62902e-07 -7.48106e-06)
(0.204003 -3.1183e-07 -5.37114e-06)
(0.204005 -1.75618e-07 -3.76051e-06)
(0.204004 -4.88905e-08 -2.46147e-06)
(0.204001 7.38895e-08 -1.26638e-06)
(0.203992 6.40028e-07 -1.04223e-05)
(0.203999 4.68579e-07 -7.48114e-06)
(0.204003 3.17009e-07 -5.37122e-06)
(0.204005 1.80385e-07 -3.76057e-06)
(0.204004 5.33325e-08 -2.46153e-06)
(0.204001 -6.96752e-08 -1.26644e-06)
(0.203992 1.90827e-06 -1.04895e-05)
(0.203999 1.39236e-06 -7.52886e-06)
(0.204003 9.3811e-07 -5.40313e-06)
(0.204004 5.29732e-07 -3.77942e-06)
(0.204004 1.50335e-07 -2.46878e-06)
(0.204 -2.17299e-07 -1.26239e-06)
(0.203991 3.15703e-06 -1.06272e-05)
(0.203998 2.29106e-06 -7.62558e-06)
(0.204002 1.53481e-06 -5.46728e-06)
(0.204004 8.58604e-07 -3.8169e-06)
(0.204003 2.31812e-07 -2.48272e-06)
(0.204 -3.76539e-07 -1.2533e-06)
(1.13074 -3.97215e-08 -3.06875e-06)
(1.13074 8.54941e-08 -4.5265e-06)
(1.13075 2.12472e-07 -5.94027e-06)
(1.13075 3.57564e-07 -5.29979e-06)
(1.13075 5.45733e-07 3.38215e-06)
(1.13071 7.86547e-07 2.77915e-05)
(1.13067 1.02403e-06 6.63536e-05)
(1.13074 -2.50749e-08 -3.06295e-06)
(1.13074 5.22777e-08 -4.51841e-06)
(1.13075 1.32255e-07 -5.93042e-06)
(1.13075 2.22975e-07 -5.28767e-06)
(1.13075 3.36832e-07 3.39366e-06)
(1.13071 4.76426e-07 2.78037e-05)
(1.13067 6.1001e-07 6.63694e-05)
(1.13074 -7.91827e-09 -3.06021e-06)
(1.13074 1.8226e-08 -4.51482e-06)
(1.13075 4.54567e-08 -5.92594e-06)
(1.13075 7.62362e-08 -5.28208e-06)
(1.13075 1.14299e-07 3.39921e-06)
(1.13071 1.60066e-07 2.78101e-05)
(1.13067 2.03199e-07 6.6378e-05)
(1.13074 9.95674e-09 -3.06021e-06)
(1.13074 -1.62547e-08 -4.51483e-06)
(1.13075 -4.35292e-08 -5.92595e-06)
(1.13075 -7.43282e-08 -5.28209e-06)
(1.13075 -1.12375e-07 3.3992e-06)
(1.13071 -1.58103e-07 2.78101e-05)
(1.13067 -2.01367e-07 6.6378e-05)
(1.13074 2.71082e-08 -3.06296e-06)
(1.13074 -5.03049e-08 -4.51842e-06)
(1.13075 -1.30318e-07 -5.93043e-06)
(1.13075 -2.21047e-07 -5.28768e-06)
(1.13075 -3.34878e-07 3.39363e-06)
(1.13071 -4.7443e-07 2.78037e-05)
(1.13067 -6.08156e-07 6.63693e-05)
(1.13074 4.1744e-08 -3.06877e-06)
(1.13074 -8.3517e-08 -4.52652e-06)
(1.13075 -2.10515e-07 -5.9403e-06)
(1.13075 -3.55595e-07 -5.29982e-06)
(1.13075 -5.43714e-07 3.3821e-06)
(1.13071 -7.84475e-07 2.77915e-05)
(1.13067 -1.02213e-06 6.63535e-05)
(0.536713 5.44596e-07 -5.66581e-06)
(0.536711 1.02684e-06 -7.04317e-06)
(0.536707 1.54807e-06 -6.09445e-06)
(0.536696 2.14265e-06 3.22985e-06)
(0.536669 2.81967e-06 3.34335e-05)
(0.536616 3.54791e-06 9.54765e-05)
(0.536583 4.13049e-06 0.000174094)
(0.536713 3.21392e-07 -5.66772e-06)
(0.536712 6.08583e-07 -7.05273e-06)
(0.536707 9.19301e-07 -6.11287e-06)
(0.536697 1.26666e-06 3.19827e-06)
(0.53667 1.65355e-06 3.33811e-05)
(0.536616 2.06005e-06 9.54038e-05)
(0.536583 2.38085e-06 0.000174011)
(0.536714 1.07387e-07 -5.66845e-06)
(0.536712 2.02839e-07 -7.05684e-06)
(0.536707 3.05932e-07 -6.12137e-06)
(0.536697 4.20169e-07 3.18402e-06)
(0.53667 5.46087e-07 3.33584e-05)
(0.536616 6.76915e-07 9.53737e-05)
(0.536583 7.79383e-07 0.000173979)
(0.536714 -1.03532e-07 -5.66847e-06)
(0.536712 -1.99057e-07 -7.05686e-06)
(0.536707 -3.02166e-07 -6.1214e-06)
(0.536697 -4.16361e-07 3.18398e-06)
(0.53667 -5.42168e-07 3.33584e-05)
(0.536616 -6.72858e-07 9.53737e-05)
(0.536583 -7.75552e-07 0.000173979)
(0.536713 -3.17537e-07 -5.66779e-06)
(0.536712 -6.0478e-07 -7.05281e-06)
(0.536707 -9.15494e-07 -6.11296e-06)
(0.536697 -1.26278e-06 3.19815e-06)
(0.53667 -1.64954e-06 3.3381e-05)
(0.536616 -2.0559e-06 9.54036e-05)
(0.536583 -2.37695e-06 0.000174011)
(0.536713 -5.4074e-07 -5.66593e-06)
(0.536711 -1.02299e-06 -7.04331e-06)
(0.536707 -1.54417e-06 -6.09462e-06)
(0.536696 -2.13863e-06 3.22963e-06)
(0.536669 -2.81547e-06 3.34332e-05)
(0.536616 -3.54356e-06 9.54762e-05)
(0.536583 -4.12645e-06 0.000174093)
(0.203994 1.00074e-06 3.22165e-07)
(0.203983 1.65978e-06 3.54041e-06)
(0.203967 2.39404e-06 1.17465e-05)
(0.203944 3.20962e-06 3.17725e-05)
(0.203909 4.10006e-06 7.37112e-05)
(0.203869 4.99739e-06 0.000142159)
(0.203856 5.66028e-06 0.000214115)
(0.203994 5.94536e-07 2.88213e-07)
(0.203984 9.88673e-07 3.47631e-06)
(0.203968 1.41856e-06 1.16456e-05)
(0.203944 1.89012e-06 3.16226e-05)
(0.20391 2.39621e-06 7.35007e-05)
(0.203869 2.89767e-06 0.000141886)
(0.203856 3.26492e-06 0.000213799)
(0.203994 1.98293e-07 2.72177e-07)
(0.203984 3.2927e-07 3.44627e-06)
(0.203968 4.70905e-07 1.15982e-05)
(0.203944 6.25219e-07 3.15533e-05)
(0.20391 7.89455e-07 7.34053e-05)
(0.20387 9.50862e-07 0.000141764)
(0.203856 1.06845e-06 0.00021366)
(0.203994 -1.9423e-07 2.72116e-07)
(0.203984 -3.25284e-07 3.4462e-06)
(0.203968 -4.66929e-07 1.15982e-05)
(0.203944 -6.2118e-07 3.15532e-05)
(0.20391 -7.8526e-07 7.34052e-05)
(0.20387 -9.46478e-07 0.000141764)
(0.203856 -1.0643e-06 0.00021366)
(0.203994 -5.90468e-07 2.88026e-07)
(0.203984 -9.84664e-07 3.4761e-06)
(0.203968 -1.41453e-06 1.16453e-05)
(0.203944 -1.886e-06 3.16223e-05)
(0.20391 -2.39192e-06 7.35004e-05)
(0.203869 -2.8932e-06 0.000141885)
(0.203856 -3.26072e-06 0.000213798)
(0.203994 -9.96666e-07 3.2184e-07)
(0.203983 -1.65573e-06 3.54004e-06)
(0.203967 -2.38991e-06 1.17461e-05)
(0.203944 -3.20533e-06 3.17719e-05)
(0.203909 -4.09555e-06 7.37106e-05)
(0.203869 -4.99271e-06 0.000142159)
(0.203856 -5.65595e-06 0.000214114)
(1.13063 4.56413e-06 -3.69647e-05)
(1.13067 4.29531e-06 -2.81254e-05)
(1.13071 3.84735e-06 -1.32311e-05)
(1.13073 3.34655e-06 -1.95459e-06)
(1.13073 2.84582e-06 2.80211e-06)
(1.13073 2.36268e-06 3.5609e-06)
(1.13073 1.92764e-06 2.86967e-06)
(1.13063 6.12733e-06 -3.70399e-05)
(1.13067 5.75762e-06 -2.81982e-05)
(1.13071 5.12965e-06 -1.32822e-05)
(1.13073 4.42976e-06 -1.98051e-06)
(1.13073 3.73529e-06 2.79222e-06)
(1.13073 3.06527e-06 3.56768e-06)
(1.13073 2.478e-06 2.87417e-06)
(1.13063 8.04068e-06 -3.74012e-05)
(1.13067 7.53988e-06 -2.85082e-05)
(1.13071 6.64575e-06 -1.34842e-05)
(1.13073 5.65898e-06 -2.08145e-06)
(1.13073 4.70067e-06 2.75198e-06)
(1.13073 3.78938e-06 3.57411e-06)
(1.13073 3.01797e-06 2.87949e-06)
(1.13062 1.07229e-05 -3.86048e-05)
(1.13067 9.93276e-06 -2.95047e-05)
(1.13071 8.54889e-06 -1.411e-05)
(1.13073 7.11055e-06 -2.38963e-06)
(1.13073 5.77702e-06 2.62518e-06)
(1.13073 4.5493e-06 3.55887e-06)
(1.13073 3.53348e-06 2.88005e-06)
(1.13062 1.68068e-05 -4.19459e-05)
(1.13066 1.46596e-05 -3.21696e-05)
(1.13071 1.16224e-05 -1.56961e-05)
(1.13073 9.06767e-06 -3.13391e-06)
(1.13073 7.06331e-06 2.31947e-06)
(1.13073 5.37369e-06 3.46799e-06)
(1.13073 4.01611e-06 2.86353e-06)
(1.13061 3.28888e-05 -4.99742e-05)
(1.13066 2.64471e-05 -3.82683e-05)
(1.1307 1.81421e-05 -1.90307e-05)
(1.13072 1.22718e-05 -4.54474e-06)
(1.13073 8.68222e-06 1.79487e-06)
(1.13073 6.20121e-06 3.30147e-06)
(1.13073 4.3865e-06 2.84575e-06)
(1.13059 4.54633e-05 -6.38877e-05)
(1.13064 3.70938e-05 -4.83274e-05)
(1.13069 2.50253e-05 -2.40178e-05)