/*--------------------------------*- C++ -*----------------------------------*\
  =========                 |
  \\      /  F ield         | OpenFOAM: The Open Source CFD Toolbox
   \\    /   O peration     | Website:  https://openfoam.org
    \\  /    A nd           | Version:  7
     \\/     M anipulation  |
\*---------------------------------------------------------------------------*/
FoamFile
{
    version     2.0;
    format      ascii;
    class       volVectorField;
    location    "1.25";
    object      U;
}
// * * * * * * * * * * * * * * * * * * * * * * * * * * * * * * * * * * * * * //

dimensions      [0 1 -1 0 0 0 0];

internalField   nonuniform List<vector> 
7784
(
(0.812554 -0.000145456 -0.000718218)
(0.812218 -0.00012067 -0.000582709)
(0.812274 -5.36004e-05 -0.000224013)
(0.812611 -2.18819e-05 -8.77957e-05)
(0.81273 -1.13467e-05 -4.33357e-05)
(0.812778 -6.45997e-06 -2.27462e-05)
(0.812811 -3.73614e-06 -1.26719e-05)
(0.812583 -0.000163993 -0.000649222)
(0.812293 -0.000135216 -0.000526966)
(0.812349 -6.50681e-05 -0.000205886)
(0.812641 -3.05374e-05 -8.34394e-05)
(0.81274 -1.74696e-05 -4.17488e-05)
(0.812783 -1.05578e-05 -2.20041e-05)
(0.812814 -6.40972e-06 -1.23249e-05)
(0.812598 -8.12856e-05 -0.000624581)
(0.812321 -6.76546e-05 -0.000507574)
(0.812378 -4.25391e-05 -0.000197433)
(0.812657 -2.60631e-05 -8.02406e-05)
(0.812749 -1.67593e-05 -4.03271e-05)
(0.812788 -1.08761e-05 -2.1321e-05)
(0.812817 -7.03266e-06 -1.19921e-05)
(0.812604 -4.82105e-05 -0.000615756)
(0.812334 -4.15457e-05 -0.000500366)
(0.812391 -3.02148e-05 -0.000193438)
(0.812667 -2.09726e-05 -7.82756e-05)
(0.812755 -1.45071e-05 -3.93303e-05)
(0.812793 -9.96842e-06 -2.07985e-05)
(0.81282 -6.76484e-06 -1.17131e-05)
(0.812608 -3.19028e-05 -0.000611946)
(0.81234 -2.81333e-05 -0.000497163)
(0.812399 -2.20279e-05 -0.0001914)
(0.812673 -1.64063e-05 -7.71189e-05)
(0.81276 -1.19791e-05 -3.86767e-05)
(0.812796 -8.60301e-06 -2.04231e-05)
(0.812823 -6.05368e-06 -1.14956e-05)
(0.81261 -2.15251e-05 -0.000610202)
(0.812344 -1.93282e-05 -0.000495662)
(0.812403 -1.5885e-05 -0.00019034)
(0.812677 -1.24403e-05 -7.64431e-05)
(0.812763 -9.46717e-06 -3.82551e-05)
(0.812799 -7.03372e-06 -2.01608e-05)
(0.812825 -5.08931e-06 -1.13334e-05)
(0.812611 -1.44885e-05 -0.00060936)
(0.812346 -1.32001e-05 -0.000494916)
(0.812406 -1.11945e-05 -0.000189769)
(0.81268 -9.06908e-06 -7.6043e-05)
(0.812765 -7.10919e-06 -3.79851e-05)
(0.812801 -5.41616e-06 -1.99818e-05)
(0.812826 -4.00216e-06 -1.12165e-05)
(0.188077 -0.000105359 -0.00123096)
(0.187759 -8.79498e-05 -0.000977359)
(0.187775 -4.74065e-05 -0.000421542)
(0.187994 -2.33369e-05 -0.000207737)
(0.188107 -1.29254e-05 -0.000122083)
(0.188178 -7.52714e-06 -7.37642e-05)
(0.18823 -4.44475e-06 -4.57572e-05)
(0.188099 -0.000127917 -0.00111784)
(0.187805 -0.000106522 -0.000888407)
(0.187822 -6.16597e-05 -0.000390805)
(0.188018 -3.38496e-05 -0.000199145)
(0.188118 -2.03153e-05 -0.000118612)
(0.188184 -1.25126e-05 -7.21659e-05)
(0.188233 -7.72976e-06 -4.50493e-05)
(0.188113 -8.24477e-05 -0.00107282)
(0.18783 -6.94495e-05 -0.000853626)
(0.187847 -4.75713e-05 -0.000374665)
(0.188034 -3.11097e-05 -0.000192233)
(0.188128 -2.05484e-05 -0.000115239)
(0.18819 -1.35311e-05 -7.04647e-05)
(0.188237 -8.8368e-06 -4.4194e-05)
(0.18812 -5.61787e-05 -0.00105423)
(0.187843 -4.85775e-05 -0.00083864)
(0.187861 -3.6592e-05 -0.000365956)
(0.188045 -2.61853e-05 -0.000187572)
(0.188136 -1.84165e-05 -0.000112692)
(0.188196 -1.27671e-05 -6.90578e-05)
(0.188241 -8.70071e-06 -4.3414e-05)
(0.188124 -3.95955e-05 -0.00104511)
(0.187851 -3.49518e-05 -0.000831054)
(0.18787 -2.78331e-05 -0.000360981)
(0.188053 -2.10777e-05 -0.000184575)
(0.188141 -1.55395e-05 -0.0001109)
(0.1882 -1.12108e-05 -6.79864e-05)
(0.188245 -7.89684e-06 -4.27757e-05)
(0.188127 -2.77429e-05 -0.00104045)
(0.187856 -2.49074e-05 -0.000827087)
(0.187876 -2.06229e-05 -0.000358138)
(0.188058 -1.62839e-05 -0.000182688)
(0.188146 -1.24526e-05 -0.000109679)
(0.188204 -9.26841e-06 -6.72051e-05)
(0.188247 -6.701e-06 -4.22828e-05)
(0.188129 -1.90889e-05 -0.00103799)
(0.187858 -1.73697e-05 -0.000824932)
(0.187879 -1.47707e-05 -0.000356486)
(0.188061 -1.20103e-05 -0.000181508)
(0.188149 -9.43511e-06 -0.000108864)
(0.188206 -7.1895e-06 -6.66551e-05)
(0.188249 -5.30208e-06 -4.19195e-05)
(0.0319587 -4.9197e-05 -0.000905023)
(0.0317138 -4.40598e-05 -0.000734436)
(0.031662 -2.9193e-05 -0.000435577)
(0.0317444 -1.71665e-05 -0.000278581)
(0.0318084 -1.04402e-05 -0.00018649)
(0.0318577 -6.48006e-06 -0.000124634)
(0.0318962 -4.03245e-06 -8.29547e-05)
(0.0319644 -6.79935e-05 -0.000842954)
(0.0317286 -6.00123e-05 -0.000686032)
(0.031681 -4.13622e-05 -0.000414021)
(0.0317573 -2.6071e-05 -0.000270216)
(0.0318157 -1.67747e-05 -0.000182645)
(0.031862 -1.08601e-05 -0.000122806)
(0.0318989 -6.98967e-06 -8.21166e-05)
(0.0319708 -5.64026e-05 -0.000810384)
(0.0317409 -4.90142e-05 -0.000660496)
(0.0316952 -3.64767e-05 -0.000399756)
(0.0317681 -2.55019e-05 -0.000262779)
(0.031823 -1.75913e-05 -0.000178603)
(0.031867 -1.19841e-05 -0.000120617)
(0.0319023 -8.03838e-06 -8.09438e-05)
(0.0319755 -4.37244e-05 -0.000792985)
(0.0317494 -3.84181e-05 -0.00064628)
(0.0317048 -3.02254e-05 -0.00039055)
(0.0317763 -2.24967e-05 -0.000257229)
(0.0318292 -1.63025e-05 -0.000175295)
(0.0318715 -1.15699e-05 -0.000118668)
(0.0319056 -8.0293e-06 -7.98068e-05)
(0.0319786 -3.30715e-05 -0.000782868)
(0.031755 -2.94934e-05 -0.000637777)
(0.0317113 -2.41257e-05 -0.000384568)
(0.0317822 -1.87497e-05 -0.000253313)
(0.031834 -1.41127e-05 -0.000172794)
(0.0318753 -1.03502e-05 -0.000117097)
(0.0319085 -7.38439e-06 -7.88354e-05)
(0.0319807 -2.43399e-05 -0.000776994)
(0.0317587 -2.19958e-05 -0.000632719)
(0.0317157 -1.85142e-05 -0.000380777)
(0.0317864 -1.48633e-05 -0.000250654)
(0.0318376 -1.15276e-05 -0.000170989)
(0.0318783 -8.67957e-06 -0.000115901)
(0.0319109 -6.33218e-06 -7.80602e-05)
(0.031982 -1.73086e-05 -0.000773558)
(0.031761 -1.5811e-05 -0.000629693)
(0.0317185 -1.35832e-05 -0.000378395)
(0.0317892 -1.11645e-05 -0.000248891)
(0.0318402 -8.85603e-06 -0.000169733)
(0.0318805 -6.80382e-06 -0.000115032)
(0.0319128 -5.0505e-06 -7.74747e-05)
(0.812832 -2.20003e-06 -7.4756e-06)
(0.812845 -1.26532e-06 -4.3863e-06)
(0.812852 -6.23257e-07 -2.2331e-06)
(0.812854 -1.07362e-07 -4.53891e-07)
(0.812852 4.04346e-07 1.33929e-06)
(0.812845 1.02896e-06 3.58983e-06)
(0.812834 -3.90951e-06 -7.30405e-06)
(0.812846 -2.30202e-06 -4.30019e-06)
(0.812852 -1.15705e-06 -2.19907e-06)
(0.812855 -2.19783e-07 -4.60035e-07)
(0.812853 7.00444e-07 1.29398e-06)
(0.812846 1.78984e-06 3.49093e-06)
(0.812836 -4.4885e-06 -7.13672e-06)
(0.812847 -2.72452e-06 -4.21613e-06)
(0.812854 -1.40319e-06 -2.16288e-06)
(0.812856 -2.94671e-07 -4.58566e-07)
(0.812854 7.83861e-07 1.26086e-06)
(0.812847 2.01325e-06 3.40898e-06)
(0.812838 -4.4783e-06 -6.98586e-06)
(0.812849 -2.79301e-06 -4.13622e-06)
(0.812855 -1.47457e-06 -2.1267e-06)
(0.812857 -3.43763e-07 -4.54351e-07)
(0.812855 7.51486e-07 1.23319e-06)
(0.812849 1.95772e-06 3.33815e-06)
(0.81284 -4.12359e-06 -6.86038e-06)
(0.81285 -2.62991e-06 -4.06648e-06)
(0.812856 -1.41869e-06 -2.09338e-06)
(0.812858 -3.596e-07 -4.49114e-07)
(0.812856 6.6264e-07 1.21085e-06)
(0.81285 1.75884e-06 3.28121e-06)
(0.812841 -3.54545e-06 -6.76152e-06)
(0.812851 -2.30254e-06 -4.00905e-06)
(0.812857 -1.26442e-06 -2.0651e-06)
(0.812859 -3.42729e-07 -4.43938e-07)
(0.812857 5.45167e-07 1.19361e-06)
(0.812851 1.47863e-06 3.23711e-06)
(0.812843 -2.83617e-06 -6.68718e-06)
(0.812853 -1.86799e-06 -3.96438e-06)
(0.812858 -1.04084e-06 -2.04221e-06)
(0.81286 -2.97267e-07 -4.38955e-07)
(0.812858 4.18485e-07 1.18113e-06)
(0.812852 1.15962e-06 3.20474e-06)
(0.188265 -2.64812e-06 -2.85138e-05)
(0.188287 -1.52414e-06 -1.66207e-05)
(0.188299 -7.37598e-07 -7.3493e-06)
(0.188301 -9.40285e-08 9.25693e-07)
(0.188294 5.58284e-07 9.49883e-06)
(0.188277 1.36708e-06 1.98548e-05)
(0.188267 -4.75825e-06 -2.81898e-05)
(0.188288 -2.79897e-06 -1.64687e-05)
(0.188299 -1.37634e-06 -7.28713e-06)
(0.188302 -1.90954e-07 9.26615e-07)
(0.188295 9.94796e-07 9.43631e-06)
(0.188279 2.4171e-06 1.96905e-05)
(0.18827 -5.66045e-06 -2.77525e-05)
(0.18829 -3.41758e-06 -1.6248e-05)
(0.188301 -1.71053e-06 -7.1923e-06)
(0.188303 -2.53391e-07 9.30252e-07)
(0.188296 1.18809e-06 9.34658e-06)
(0.188281 2.85084e-06 1.94628e-05)
(0.188273 -5.75729e-06 -2.73204e-05)
(0.188292 -3.5609e-06 -1.60167e-05)
(0.188303 -1.82076e-06 -7.0885e-06)
(0.188304 -3.06226e-07 9.37064e-07)
(0.188298 1.18201e-06 9.255e-06)
(0.188282 2.8404e-06 1.92378e-05)
(0.188275 -5.36399e-06 -2.69452e-05)
(0.188294 -3.38638e-06 -1.58066e-05)
(0.188304 -1.76623e-06 -6.99027e-06)
(0.188306 -3.32896e-07 9.46523e-07)
(0.188299 1.06818e-06 9.17566e-06)
(0.188284 2.58773e-06 1.90465e-05)
(0.188277 -4.64818e-06 -2.66413e-05)
(0.188296 -2.98444e-06 -1.56297e-05)
(0.188306 -1.58396e-06 -6.90485e-06)
(0.188307 -3.27797e-07 9.57237e-07)
(0.188301 8.95704e-07 9.11252e-06)
(0.188286 2.19436e-06 1.88948e-05)
(0.188279 -3.73812e-06 -2.64086e-05)
(0.188297 -2.43269e-06 -1.54903e-05)
(0.188307 -1.30973e-06 -6.83558e-06)
(0.188308 -2.91522e-07 9.6763e-07)
(0.188302 6.97624e-07 9.06523e-06)
(0.188287 1.73051e-06 1.87812e-05)
(0.0319239 -2.48841e-06 -5.36319e-05)
(0.0319417 -1.45913e-06 -3.14203e-05)
(0.0319509 -7.06442e-07 -1.30101e-05)
(0.0319519 -7.44169e-08 3.96365e-06)
(0.0319447 5.65118e-07 2.15476e-05)
(0.0319288 1.33773e-06 4.19912e-05)
(0.0319255 -4.42351e-06 -5.32443e-05)
(0.0319428 -2.64255e-06 -3.12385e-05)
(0.0319517 -1.30216e-06 -1.29298e-05)
(0.0319526 -1.61642e-07 3.98164e-06)
(0.0319455 9.79765e-07 2.14968e-05)
(0.0319299 2.31907e-06 4.18196e-05)
(0.0319279 -5.24625e-06 -5.26165e-05)
(0.0319445 -3.20305e-06 -3.09117e-05)
(0.0319531 -1.60579e-06 -1.27855e-05)
(0.0319538 -2.20979e-07 3.99028e-06)
(0.0319469 1.15079e-06 2.13666e-05)
(0.0319316 2.70847e-06 4.14897e-05)
(0.0319303 -5.38235e-06 -5.19626e-05)
(0.0319464 -3.35417e-06 -3.05531e-05)
(0.0319546 -1.71458e-06 -1.26226e-05)
(0.0319553 -2.70408e-07 3.99959e-06)
(0.0319484 1.15088e-06 2.122e-05)
(0.0319334 2.71829e-06 4.11395e-05)
(0.0319326 -5.0615e-06 -5.13754e-05)
(0.0319482 -3.21113e-06 -3.0218e-05)
(0.0319562 -1.6719e-06 -1.24655e-05)
(0.0319567 -2.96981e-07 4.01219e-06)
(0.0319499 1.04935e-06 2.10885e-05)
(0.0319351 2.49871e-06 4.083e-05)
(0.0319345 -4.42047e-06 -5.08878e-05)
(0.0319498 -2.84715e-06 -2.9931e-05)
(0.0319575 -1.50659e-06 -1.2327e-05)
(0.031958 -2.94952e-07 4.02687e-06)
(0.0319512 8.87084e-07 2.09804e-05)
(0.0319366 2.13519e-06 4.05776e-05)
(0.0319361 -3.5769e-06 -5.05076e-05)
(0.0319512 -2.33192e-06 -2.97012e-05)
(0.0319587 -1.2507e-06 -1.22133e-05)
(0.0319591 -2.64367e-07 4.04158e-06)
(0.0319523 6.95506e-07 2.0898e-05)
(0.0319378 1.69421e-06 4.03847e-05)
(0.812831 1.94918e-06 7.12186e-06)
(0.812808 3.50624e-06 1.38692e-05)
(0.812771 6.24967e-06 2.85073e-05)
(0.81269 1.18316e-05 6.23217e-05)
(0.812414 3.03958e-05 0.000158446)
(0.812217 7.66761e-05 0.000447996)
(0.812485 9.46687e-05 0.000697738)
(0.812833 3.31279e-06 6.93145e-06)
(0.812811 5.71875e-06 1.34878e-05)
(0.812776 9.6782e-06 2.77082e-05)
(0.812707 1.68387e-05 6.02315e-05)
(0.812461 3.70633e-05 0.000149043)
(0.812262 8.48411e-05 0.000415204)
(0.812498 0.000105492 0.000656012)
(0.812835 3.6165e-06 6.76051e-06)
(0.812814 5.91933e-06 1.31308e-05)
(0.812781 9.40027e-06 2.69378e-05)
(0.812716 1.48669e-05 5.84522e-05)
(0.812479 2.48287e-05 0.000144256)
(0.81228 4.18721e-05 0.000403536)
(0.812505 5.15575e-05 0.000641096)
(0.812837 3.44102e-06 6.618e-06)
(0.812817 5.41289e-06 1.28543e-05)
(0.812785 8.15314e-06 2.6395e-05)
(0.812722 1.20495e-05 5.73607e-05)
(0.812487 1.77732e-05 0.000141994)
(0.812288 2.55338e-05 0.00039918)
(0.812509 3.0524e-05 0.000635609)
(0.812839 3.04706e-06 6.50837e-06)
(0.812819 4.66022e-06 1.2656e-05)
(0.812788 6.7504e-06 2.60399e-05)
(0.812726 9.49088e-06 5.67205e-05)
(0.812492 1.30651e-05 0.000140839)
(0.812292 1.72628e-05 0.000397253)
(0.812511 2.01276e-05 0.000633219)
(0.81284 2.53692e-06 6.42685e-06)
(0.81282 3.80033e-06 1.25172e-05)
(0.81279 5.34592e-06 2.58093e-05)
(0.812728 7.23429e-06 5.63418e-05)
(0.812495 9.47335e-06 0.00014023)
(0.812295 1.18468e-05 0.00039635)
(0.812512 1.35211e-05 0.000632126)
(0.812841 1.97719e-06 6.36861e-06)
(0.812822 2.91772e-06 1.24223e-05)
(0.812791 4.01706e-06 2.56608e-05)
(0.81273 5.28794e-06 5.61157e-05)
(0.812496 6.69338e-06 0.000139898)
(0.812296 8.08254e-06 0.000395901)
(0.812513 9.06998e-06 0.000631601)
(0.188249 2.56834e-06 3.43764e-05)
(0.188205 4.58594e-06 5.77774e-05)
(0.188143 8.13723e-06 9.99006e-05)
(0.188048 1.49995e-05 0.000181264)
(0.187855 3.18781e-05 0.000370925)
(0.187803 6.28445e-05 0.000851884)
(0.188136 7.40687e-05 0.00125809)
(0.188251 4.41217e-06 3.39984e-05)
(0.188209 7.53017e-06 5.68919e-05)
(0.18815 1.26133e-05 9.78416e-05)
(0.188063 2.1432e-05 0.00017592)
(0.187888 4.05643e-05 0.000351282)
(0.187831 7.41809e-05 0.000793354)
(0.188142 8.81665e-05 0.00118365)
(0.188254 5.02617e-06 3.35165e-05)
(0.188213 8.12281e-06 5.58907e-05)
(0.188156 1.27067e-05 9.57522e-05)
(0.188074 1.96135e-05 0.00017144)
(0.187904 3.06627e-05 0.000340681)
(0.187845 4.61881e-05 0.000770357)
(0.188148 5.48199e-05 0.00115435)
(0.188256 4.89098e-06 3.30735e-05)
(0.188216 7.60578e-06 5.50571e-05)
(0.188161 1.13163e-05 9.41924e-05)
(0.188081 1.64116e-05 0.000168512)
(0.187913 2.33466e-05 0.000335132)
(0.187853 3.16373e-05 0.000760586)
(0.188152 3.68037e-05 0.0011422)
(0.188258 4.38352e-06 3.27153e-05)
(0.188219 6.6276e-06 5.44281e-05)
(0.188165 9.50002e-06 9.31094e-05)
(0.188086 1.31606e-05 0.000166662)
(0.187919 1.76736e-05 0.000332012)
(0.187858 2.25489e-05 0.000755707)
(0.188154 2.57469e-05 0.00113625)
(0.18826 3.67471e-06 3.24415e-05)
(0.188221 5.43999e-06 5.39725e-05)
(0.188167 7.57827e-06 9.23754e-05)
(0.188089 1.01336e-05 0.000165505)
(0.187922 1.3045e-05 0.000330237)
(0.187861 1.59661e-05 0.000753179)
(0.188156 1.79348e-05 0.00113323)
(0.188262 2.87557e-06 3.22418e-05)
(0.188223 4.19156e-06 5.36534e-05)
(0.188169 5.71714e-06 9.18878e-05)
(0.188091 7.45023e-06 0.000164783)
(0.187924 9.31219e-06 0.000329209)
(0.187863 1.10841e-05 0.000751817)
(0.188157 1.22861e-05 0.00113165)
(0.0319031 2.42238e-06 6.83685e-05)
(0.031866 4.09957e-06 0.000105586)
(0.0318168 6.79981e-06 0.000161719)
(0.0317523 1.14034e-05 0.000248916)
(0.0316636 2.01042e-05 0.000398467)
(0.0316817 3.14351e-05 0.000691432)
(0.0319348 3.29703e-05 0.000951805)
(0.0319048 4.11446e-06 6.79309e-05)
(0.0318687 6.73844e-06 0.000104532)
(0.0318215 1.07088e-05 0.000159334)
(0.0317611 1.69483e-05 0.000243481)
(0.0316772 2.77167e-05 0.000383635)
(0.0316899 4.15471e-05 0.00065611)
(0.0319351 4.4988e-05 0.000906688)
(0.0319071 4.68387e-06 6.72537e-05)
(0.031872 7.37164e-06 0.000103203)
(0.0318263 1.11356e-05 0.000156783)
(0.0317683 1.64316e-05 0.000238643)
(0.0316867 2.39188e-05 0.000374078)
(0.0316974 3.26824e-05 0.000638411)
(0.0319379 3.70649e-05 0.000884185)
(0.0319094 4.61406e-06 6.65888e-05)
(0.0318751 7.04453e-06 0.000102014)
(0.0318304 1.02322e-05 0.000154708)
(0.0317737 1.43841e-05 0.000235084)
(0.0316931 1.96066e-05 0.000368049)
(0.0317027 2.52102e-05 0.000628861)
(0.0319405 2.86147e-05 0.000872451)
(0.0319114 4.1845e-06 6.60253e-05)
(0.0318777 6.24186e-06 0.000101063)
(0.0318337 8.79336e-06 0.000153152)
(0.0317776 1.19132e-05 0.000232597)
(0.0316974 1.5542e-05 0.000364176)
(0.0317063 1.91892e-05 0.000623238)
(0.0319424 2.15523e-05 0.00086571)
(0.0319131 3.54117e-06 6.55802e-05)
(0.0318797 5.18792e-06 0.000100343)
(0.0318361 7.13538e-06 0.000152035)
(0.0317804 9.39181e-06 0.000230919)
(0.0317003 1.18594e-05 0.00036174)
(0.0317087 1.42204e-05 0.000619935)
(0.0319437 1.57949e-05 0.00086184)
(0.0319145 2.79124e-06 6.52473e-05)
(0.0318812 4.03464e-06 9.9823e-05)
(0.0318378 5.44999e-06 0.000151262)
(0.0317823 7.02105e-06 0.000229811)
(0.0317022 8.66103e-06 0.000360219)
(0.0317103 1.01737e-05 0.000617977)
(0.0319445 1.11908e-05 0.000859598)
(0.812612 -9.35115e-06 -0.000608931)
(0.812348 -8.60657e-06 -0.000494526)
(0.812407 -7.443e-06 -0.000189452)
(0.812681 -6.16268e-06 -7.58063e-05)
(0.812767 -4.92933e-06 -3.78159e-05)
(0.812802 -3.82218e-06 -1.98639e-05)
(0.812827 -2.86673e-06 -1.11364e-05)
(0.812612 -5.25971e-06 -0.000608712)
(0.812348 -4.87175e-06 -0.000494323)
(0.812408 -4.26157e-06 -0.000189281)
(0.812682 -3.57511e-06 -7.56731e-05)
(0.812768 -2.89561e-06 -3.77168e-05)
(0.812803 -2.27039e-06 -1.97926e-05)
(0.812828 -1.71922e-06 -1.10866e-05)
(0.812612 -1.69877e-06 -0.000608619)
(0.812349 -1.57842e-06 -0.000494235)
(0.812408 -1.3881e-06 -0.000189206)
(0.812683 -1.17167e-06 -7.56129e-05)
(0.812768 -9.54643e-07 -3.7671e-05)
(0.812803 -7.52524e-07 -1.9759e-05)
(0.812828 -5.72433e-07 -1.10627e-05)
(0.812612 1.6993e-06 -0.000608619)
(0.812349 1.57805e-06 -0.000494235)
(0.812408 1.38792e-06 -0.000189206)
(0.812683 1.17162e-06 -7.5613e-05)
(0.812768 9.54732e-07 -3.7671e-05)
(0.812803 7.52756e-07 -1.97589e-05)
(0.812828 5.72843e-07 -1.10627e-05)
(0.812612 5.2602e-06 -0.000608712)
(0.812348 4.87116e-06 -0.000494323)
(0.812408 4.26129e-06 -0.000189281)
(0.812682 3.57494e-06 -7.56731e-05)
(0.812768 2.89561e-06 -3.77168e-05)
(0.812803 2.27054e-06 -1.97926e-05)
(0.812828 1.71957e-06 -1.10865e-05)
(0.812612 9.35153e-06 -0.000608931)
(0.812348 8.6059e-06 -0.000494526)
(0.812407 7.44248e-06 -0.000189452)
(0.812681 6.16244e-06 -7.58063e-05)
(0.812767 4.92925e-06 -3.78158e-05)
(0.812802 3.82222e-06 -1.9864e-05)
(0.812827 2.867e-06 -1.11363e-05)
(0.18813 -1.24682e-05 -0.00103665)
(0.18786 -1.14546e-05 -0.000823731)
(0.187881 -9.91191e-06 -0.000355521)
(0.188063 -8.2195e-06 -0.000180781)
(0.188151 -6.57898e-06 -0.000108338)
(0.188208 -5.09745e-06 -6.62852e-05)
(0.188251 -3.81337e-06 -4.16665e-05)
(0.18813 -7.05707e-06 -0.00103593)
(0.187861 -6.52275e-06 -0.000823082)
(0.187882 -5.70423e-06 -0.000354983)
(0.188064 -4.78778e-06 -0.000180362)
(0.188152 -3.87759e-06 -0.000108024)
(0.188209 -3.03663e-06 -6.60582e-05)
(0.188252 -2.29276e-06 -4.15074e-05)
(0.18813 -2.2859e-06 -0.00103562)
(0.187861 -2.11922e-06 -0.000822795)
(0.187883 -1.8626e-06 -0.000354742)
(0.188065 -1.57242e-06 -0.00018017)
(0.188152 -1.28081e-06 -0.000107878)
(0.188209 -1.00832e-06 -6.59504e-05)
(0.188252 -7.64803e-07 -4.14308e-05)
(0.18813 2.28483e-06 -0.00103562)
(0.187861 2.11756e-06 -0.000822795)
(0.187883 1.86108e-06 -0.000354742)
(0.188065 1.57096e-06 -0.00018017)
(0.188152 1.27943e-06 -0.000107878)
(0.188209 1.00703e-06 -6.59504e-05)
(0.188252 7.63677e-07 -4.14308e-05)
(0.18813 7.05571e-06 -0.00103593)
(0.187861 6.52081e-06 -0.000823082)
(0.187882 5.70249e-06 -0.000354983)
(0.188064 4.78615e-06 -0.000180362)
(0.188152 3.87608e-06 -0.000108024)
(0.188209 3.03522e-06 -6.60582e-05)
(0.188252 2.29147e-06 -4.15074e-05)
(0.18813 1.24666e-05 -0.00103665)
(0.18786 1.14522e-05 -0.000823731)
(0.187881 9.9099e-06 -0.000355521)
(0.188063 8.21771e-06 -0.000180781)
(0.188151 6.57738e-06 -0.000108338)
(0.188208 5.09601e-06 -6.62851e-05)
(0.188251 3.81204e-06 -4.16664e-05)
(0.0319828 -1.15432e-05 -0.00077155)
(0.0317625 -1.06286e-05 -0.000627892)
(0.0317204 -9.25919e-06 -0.000376926)
(0.0317911 -7.7351e-06 -0.00024776)
(0.031842 -6.2343e-06 -0.000168897)
(0.0318821 -4.85972e-06 -0.000114434)
(0.0319141 -3.65323e-06 -7.70599e-05)
(0.0319833 -6.61384e-06 -0.000770433)
(0.0317634 -6.12124e-06 -0.000626876)
(0.0317214 -5.37916e-06 -0.000376078)
(0.0317923 -4.53977e-06 -0.00024709)
(0.0318431 -3.69638e-06 -0.000168389)
(0.0318831 -2.90856e-06 -0.000114061)
(0.031915 -2.20455e-06 -7.67959e-05)
(0.0319835 -2.15446e-06 -0.000769933)
(0.0317638 -1.99927e-06 -0.000626417)
(0.031722 -1.76424e-06 -0.00037569)
(0.0317928 -1.49633e-06 -0.000246778)
(0.0318436 -1.22446e-06 -0.000168148)
(0.0318836 -9.68004e-07 -0.000113882)
(0.0319155 -7.36752e-07 -7.66678e-05)
(0.0319835 2.15353e-06 -0.000769933)
(0.0317638 1.99771e-06 -0.000626417)
(0.031722 1.76281e-06 -0.00037569)
(0.0317928 1.49492e-06 -0.000246777)
(0.0318436 1.22308e-06 -0.000168148)
(0.0318836 9.66664e-07 -0.000113882)
(0.0319155 7.35501e-07 -7.66678e-05)
(0.0319833 6.61266e-06 -0.000770433)
(0.0317634 6.11944e-06 -0.000626876)
(0.0317214 5.37752e-06 -0.000376078)
(0.0317923 4.53821e-06 -0.000247089)
(0.0318431 3.69488e-06 -0.000168388)
(0.0318831 2.90709e-06 -0.000114061)
(0.031915 2.20322e-06 -7.67958e-05)
(0.0319828 1.15417e-05 -0.00077155)
(0.0317625 1.06264e-05 -0.000627892)
(0.0317204 9.25731e-06 -0.000376926)
(0.0317911 7.73342e-06 -0.00024776)
(0.031842 6.23273e-06 -0.000168897)
(0.0318821 4.85821e-06 -0.000114434)
(0.0319141 3.65184e-06 -7.70596e-05)
(0.812843 -2.05682e-06 -6.63462e-06)
(0.812853 -1.36886e-06 -3.932e-06)
(0.812859 -7.71027e-07 -2.02538e-06)
(0.81286 -2.28726e-07 -4.35142e-07)
(0.812859 2.92988e-07 1.17254e-06)
(0.812853 8.27532e-07 3.18231e-06)
(0.812844 -1.24339e-06 -6.60107e-06)
(0.812854 -8.33103e-07 -3.91091e-06)
(0.812859 -4.72609e-07 -2.0142e-06)
(0.812861 -1.43635e-07 -4.32391e-07)
(0.812859 1.7281e-07 1.16721e-06)
(0.812853 4.94847e-07 3.16822e-06)
(0.812844 -4.15543e-07 -6.58484e-06)
(0.812854 -2.79264e-07 -3.9006e-06)
(0.812859 -1.58833e-07 -2.00864e-06)
(0.812861 -4.86145e-08 -4.30919e-07)
(0.812859 5.74058e-08 1.16472e-06)
(0.812853 1.64957e-07 3.16148e-06)
(0.812844 4.16105e-07 -6.58485e-06)
(0.812854 2.79942e-07 -3.90059e-06)
(0.812859 1.59715e-07 -2.00861e-06)
(0.812861 4.96668e-08 -4.30895e-07)
(0.812859 -5.61844e-08 1.16471e-06)
(0.812853 -1.63543e-07 3.16147e-06)
(0.812844 1.2439e-06 -6.6011e-06)
(0.812854 8.33748e-07 -3.91091e-06)
(0.812859 4.73419e-07 -2.01417e-06)
(0.812861 1.44587e-07 -4.32335e-07)
(0.812859 -1.71672e-07 1.16723e-06)
(0.812853 -4.93503e-07 3.16827e-06)
(0.812843 2.05726e-06 -6.63456e-06)
(0.812853 1.36946e-06 -3.9319e-06)
(0.812859 7.71815e-07 -2.02531e-06)
(0.81286 2.29719e-07 -4.35056e-07)
(0.812859 -2.91868e-07 1.17262e-06)
(0.812853 -8.26253e-07 3.18245e-06)
(0.18828 -2.72065e-06 -2.6242e-05)
(0.188298 -1.7883e-06 -1.5388e-05)
(0.188308 -9.73476e-07 -6.78366e-06)
(0.188309 -2.28764e-07 9.76462e-07)
(0.188303 4.93718e-07 9.03212e-06)
(0.188288 1.2394e-06 1.87013e-05)
(0.188281 -1.6485e-06 -2.6135e-05)
(0.188299 -1.0908e-06 -1.53213e-05)
(0.188308 -5.98256e-07 -6.74928e-06)
(0.18831 -1.45685e-07 9.82877e-07)
(0.188303 2.92898e-07 9.01137e-06)
(0.188289 7.42243e-07 1.86509e-05)
(0.188281 -5.52089e-07 -2.60829e-05)
(0.188299 -3.66618e-07 -1.52884e-05)
(0.188309 -2.01899e-07 -6.7321e-06)
(0.18831 -5.01463e-08 9.86303e-07)
(0.188304 9.67618e-08 9.00142e-06)
(0.188289 2.46734e-07 1.86265e-05)
(0.188281 5.51037e-07 -2.60828e-05)
(0.188299 3.65628e-07 -1.52884e-05)
(0.188309 2.01064e-07 -6.73208e-06)
(0.18831 4.94206e-08 9.86305e-07)
(0.188304 -9.75494e-08 9.00142e-06)
(0.188289 -2.47495e-07 1.86266e-05)
(0.188281 1.64738e-06 -2.6135e-05)
(0.188299 1.0898e-06 -1.53212e-05)
(0.188308 5.97333e-07 -6.74919e-06)
(0.18831 1.44781e-07 9.82974e-07)
(0.188303 -2.93795e-07 9.01147e-06)
(0.188289 -7.4303e-07 1.8651e-05)
(0.18828 2.7195e-06 -2.62418e-05)
(0.188298 1.7873e-06 -1.53878e-05)
(0.188308 9.72556e-07 -6.78351e-06)
(0.188309 2.27863e-07 9.76654e-07)
(0.188303 -4.94516e-07 9.03238e-06)
(0.188288 -1.2401e-06 1.87017e-05)
(0.0319372 -2.61496e-06 -5.02316e-05)
(0.0319522 -1.72044e-06 -2.95311e-05)
(0.0319596 -9.32438e-07 -1.21275e-05)
(0.03196 -2.08494e-07 4.05423e-06)
(0.0319531 4.94842e-07 2.08392e-05)
(0.0319387 1.21877e-06 4.0247e-05)
(0.031938 -1.5891e-06 -5.00528e-05)
(0.0319528 -1.05196e-06 -2.94193e-05)
(0.0319602 -5.74267e-07 -1.20703e-05)
(0.0319605 -1.33307e-07 4.06365e-06)
(0.0319537 2.94649e-07 2.0802e-05)
(0.0319393 7.32065e-07 4.01592e-05)
(0.0319384 -5.32988e-07 -4.99652e-05)
(0.0319532 -3.53998e-07 -2.9364e-05)
(0.0319605 -1.94011e-07 -1.20417e-05)
(0.0319608 -4.60836e-08 4.06856e-06)
(0.031954 9.73596e-08 2.0784e-05)
(0.0319396 2.43571e-07 4.01165e-05)
(0.0319384 5.31821e-07 -4.99652e-05)
(0.0319532 3.52862e-07 -2.9364e-05)
(0.0319605 1.9306e-07 -1.20417e-05)
(0.0319608 4.50986e-08 4.06857e-06)
(0.031954 -9.84826e-08 2.0784e-05)
(0.0319396 -2.44653e-07 4.01165e-05)
(0.031938 1.58793e-06 -5.00527e-05)
(0.0319528 1.0508e-06 -2.94192e-05)
(0.0319602 5.7317e-07 -1.20702e-05)
(0.0319605 1.32199e-07 4.06371e-06)
(0.0319537 -2.95734e-07 2.08021e-05)
(0.0319393 -7.33104e-07 4.01593e-05)
(0.0319372 2.61373e-06 -5.02313e-05)
(0.0319522 1.7193e-06 -2.95309e-05)
(0.0319596 9.31353e-07 -1.21273e-05)
(0.03196 2.07368e-07 4.05445e-06)
(0.0319531 -4.95923e-07 2.08395e-05)
(0.0319387 -1.21981e-06 4.02473e-05)
(0.812842 1.40571e-06 6.32886e-06)
(0.812822 2.05297e-06 1.23597e-05)
(0.812792 2.78471e-06 2.55674e-05)
(0.812731 3.59758e-06 5.59813e-05)
(0.812497 4.45512e-06 0.000139713)
(0.812297 5.26574e-06 0.000395667)
(0.812513 5.83935e-06 0.000631336)
(0.812842 8.38714e-07 6.30429e-06)
(0.812823 1.21692e-06 1.23218e-05)
(0.812793 1.63526e-06 2.55126e-05)
(0.812731 2.08815e-06 5.59055e-05)
(0.812498 2.55208e-06 0.000139614)
(0.812298 2.97912e-06 0.000395546)
(0.812514 3.27948e-06 0.000631201)
(0.812842 2.79064e-07 6.29258e-06)
(0.812823 4.03446e-07 1.2304e-05)
(0.812793 5.39545e-07 2.54873e-05)
(0.812732 6.85031e-07 5.58712e-05)
(0.812498 8.31955e-07 0.000139569)
(0.812298 9.65531e-07 0.000395494)
(0.812514 1.05949e-06 0.000631144)
(0.812842 -2.77457e-07 6.2926e-06)
(0.812823 -4.01711e-07 1.2304e-05)
(0.812793 -5.37712e-07 2.54873e-05)
(0.812732 -6.83122e-07 5.58711e-05)
(0.812498 -8.30028e-07 0.000139569)
(0.812298 -9.63476e-07 0.000395494)
(0.812514 -1.05611e-06 0.000631144)
(0.812842 -8.37165e-07 6.30438e-06)
(0.812823 -1.21524e-06 1.23219e-05)
(0.812793 -1.6335e-06 2.55127e-05)
(0.812731 -2.08632e-06 5.59055e-05)
(0.812498 -2.55021e-06 0.000139614)
(0.812298 -2.97712e-06 0.000395546)
(0.812514 -3.27618e-06 0.000631201)
(0.812842 -1.40425e-06 6.32902e-06)
(0.812822 -2.05141e-06 1.23598e-05)
(0.812792 -2.78308e-06 2.55675e-05)
(0.812731 -3.59588e-06 5.59815e-05)
(0.812497 -4.4533e-06 0.000139713)
(0.812297 -5.26382e-06 0.000395667)
(0.812513 -5.83621e-06 0.000631336)
(0.188263 2.04922e-06 3.2104e-05)
(0.188224 2.95501e-06 5.344e-05)
(0.188171 3.97167e-06 9.15743e-05)
(0.188092 5.08462e-06 0.00016434)
(0.187926 6.2324e-06 0.000328612)
(0.187864 7.28663e-06 0.000751063)
(0.188157 7.9995e-06 0.0011308)
(0.188263 1.22377e-06 3.20181e-05)
(0.188225 1.75287e-06 5.33095e-05)
(0.188171 2.33428e-06 9.13878e-05)
(0.188093 2.95557e-06 0.000164085)
(0.187927 3.57985e-06 0.000328279)
(0.187865 4.14076e-06 0.000750658)
(0.188158 4.51838e-06 0.00113034)
(0.188264 4.06417e-07 3.19769e-05)
(0.188225 5.80337e-07 5.32478e-05)
(0.188172 7.69481e-07 9.13009e-05)
(0.188094 9.69198e-07 0.000163969)
(0.187927 1.16732e-06 0.00032813)
(0.187865 1.34354e-06 0.000750479)
(0.188158 1.46244e-06 0.00113015)
(0.188264 -4.07118e-07 3.19769e-05)
(0.188225 -5.81031e-07 5.32478e-05)
(0.188172 -7.70124e-07 9.13009e-05)
(0.188094 -9.69788e-07 0.000163969)
(0.187927 -1.1679e-06 0.00032813)
(0.187865 -1.34387e-06 0.000750479)
(0.188158 -1.46064e-06 0.00113015)
(0.188263 -1.22449e-06 3.20182e-05)
(0.188225 -1.7536e-06 5.33097e-05)
(0.188171 -2.33497e-06 9.13879e-05)
(0.188093 -2.95617e-06 0.000164085)
(0.187927 -3.58038e-06 0.000328279)
(0.187865 -4.14108e-06 0.000750658)
(0.188158 -4.51665e-06 0.00113034)
(0.188263 -2.04987e-06 3.21043e-05)
(0.188224 -2.95566e-06 5.34402e-05)
(0.188171 -3.97231e-06 9.15745e-05)
(0.188092 -5.0852e-06 0.00016434)
(0.187926 -6.23286e-06 0.000328612)
(0.187864 -7.28695e-06 0.000751063)
(0.188157 -7.99789e-06 0.0011308)
(0.0319155 1.99936e-06 6.50136e-05)
(0.0318823 2.86293e-06 9.94669e-05)
(0.0318391 3.81835e-06 0.000150749)
(0.0317836 4.84576e-06 0.000229103)
(0.0317034 5.88324e-06 0.000359286)
(0.0317113 6.81558e-06 0.000616819)
(0.0319451 7.44166e-06 0.000858298)
(0.0319161 1.19797e-06 6.4866e-05)
(0.0318831 1.70526e-06 9.9246e-05)
(0.0318398 2.25606e-06 0.000150438)
(0.0317844 2.83614e-06 0.000228685)
(0.0317042 3.40944e-06 0.000358748)
(0.0317119 3.9161e-06 0.000616169)
(0.0319454 4.25542e-06 0.000857578)
(0.0319165 3.98369e-07 6.47948e-05)
(0.0318834 5.65581e-07 9.91405e-05)
(0.0318402 7.45429e-07 0.000150291)
(0.0317847 9.32892e-07 0.00022849)
(0.0317045 1.11623e-06 0.000358503)
(0.0317121 1.27703e-06 0.000615876)
(0.0319455 1.3851e-06 0.000857256)
(0.0319165 -3.99461e-07 6.47948e-05)
(0.0318834 -5.66693e-07 9.91405e-05)
(0.0318402 -7.46527e-07 0.000150291)
(0.0317847 -9.33965e-07 0.00022849)
(0.0317045 -1.11729e-06 0.000358503)
(0.0317121 -1.27782e-06 0.000615876)
(0.0319455 -1.38369e-06 0.000857256)
(0.0319161 -1.19907e-06 6.48661e-05)
(0.0318831 -1.70639e-06 9.92461e-05)
(0.0318398 -2.25711e-06 0.000150438)
(0.0317844 -2.83714e-06 0.000228684)
(0.0317042 -3.41043e-06 0.000358748)
(0.0317119 -3.91689e-06 0.000616168)
(0.0319454 -4.25407e-06 0.000857578)
(0.0319155 -2.00042e-06 6.50138e-05)
(0.0318823 -2.864e-06 9.94671e-05)
(0.0318391 -3.81935e-06 0.000150749)
(0.0317836 -4.84673e-06 0.000229103)
(0.0317034 -5.88413e-06 0.000359286)
(0.0317113 -6.81635e-06 0.000616819)
(0.0319451 -7.44044e-06 0.000858297)
(0.812611 1.44889e-05 -0.00060936)
(0.812346 1.31992e-05 -0.000494916)
(0.812406 1.1194e-05 -0.000189769)
(0.81268 9.06866e-06 -7.6043e-05)
(0.812765 7.10907e-06 -3.7985e-05)
(0.812801 5.41623e-06 -1.99818e-05)
(0.812826 4.00235e-06 -1.12164e-05)
(0.81261 2.15254e-05 -0.000610202)
(0.812344 1.93274e-05 -0.000495662)
(0.812403 1.58841e-05 -0.00019034)
(0.812677 1.24398e-05 -7.64431e-05)
(0.812763 9.46683e-06 -3.8255e-05)
(0.812799 7.03357e-06 -2.01609e-05)
(0.812825 5.08955e-06 -1.13332e-05)
(0.812608 3.19029e-05 -0.000611946)
(0.81234 2.8132e-05 -0.000497163)
(0.812399 2.20267e-05 -0.000191399)
(0.812673 1.64054e-05 -7.7119e-05)
(0.81276 1.19786e-05 -3.86766e-05)
(0.812796 8.60274e-06 -2.04231e-05)
(0.812823 6.05361e-06 -1.14955e-05)
(0.812604 4.821e-05 -0.000615755)
(0.812334 4.15439e-05 -0.000500366)
(0.812391 3.02134e-05 -0.000193437)
(0.812667 2.09715e-05 -7.82753e-05)
(0.812755 1.45065e-05 -3.93302e-05)
(0.812793 9.96819e-06 -2.07986e-05)
(0.81282 6.76461e-06 -1.1713e-05)
(0.812598 8.12845e-05 -0.00062458)
(0.812321 6.76517e-05 -0.000507573)
(0.812378 4.25367e-05 -0.000197432)
(0.812657 2.60613e-05 -8.02402e-05)
(0.812749 1.67586e-05 -4.03267e-05)
(0.812789 1.08755e-05 -2.1321e-05)