/*--------------------------------*- C++ -*----------------------------------*\
  =========                 |
  \\      /  F ield         | OpenFOAM: The Open Source CFD Toolbox
   \\    /   O peration     | Website:  https://openfoam.org
    \\  /    A nd           | Version:  7
     \\/     M anipulation  |
\*---------------------------------------------------------------------------*/
FoamFile
{
    version     2.0;
    format      ascii;
    class       volScalarField;
    location    "0.75";
    object      p;
}
// * * * * * * * * * * * * * * * * * * * * * * * * * * * * * * * * * * * * * //

dimensions      [0 2 -2 0 0 0 0];

internalField   nonuniform List<scalar> 
7936
(
-1.73535e-09
-0.00106617
-0.00211253
-0.00306123
-0.00384504
-0.00440058
-0.00466276
-0.00457759
-0.00219473
-0.00354557
-0.0050614
-0.00667976
-0.00833595
-0.00995052
-0.0114069
-0.01253
-0.00421882
-0.0059401
-0.00801056
-0.0103799
-0.012992
-0.0157584
-0.018515
-0.0209681
-0.00590906
-0.00809184
-0.0108009
-0.0140037
-0.0176643
-0.0217019
-0.0259262
-0.0299396
-0.00711387
-0.00984485
-0.013259
-0.0173573
-0.0221391
-0.0275522
-0.033413
-0.0392598
-0.00769011
-0.0110324
-0.0151828
-0.0201871
-0.0260936
-0.0328929
-0.0404341
-0.0482377
-0.00751971
-0.0114938
-0.0163395
-0.0221606
-0.0290602
-0.0370621
-0.0460544
-0.0555372
-0.00654544
-0.0110845
-0.0164781
-0.0228737
-0.0303868
-0.0390397
-0.0487981
-0.0593349
-3.49656e-06
-0.00106103
-0.00208521
-0.00301012
-0.00376533
-0.00429629
-0.00453398
-0.00443315
-0.0021799
-0.00350685
-0.00498552
-0.00654846
-0.00813735
-0.00967331
-0.0110485
-0.0121123
-0.00417558
-0.00585805
-0.00786255
-0.0101379
-0.0126198
-0.0152215
-0.0178001
-0.020118
-0.00583709
-0.00795438
-0.010565
-0.013608
-0.0170362
-0.0207643
-0.0246365
-0.0283668
-0.00701514
-0.00965293
-0.0129103
-0.016755
-0.0211492
-0.0260178
-0.0312154
-0.0364933
-0.00756577
-0.0107783
-0.014705
-0.0193337
-0.0246378
-0.0305371
-0.036885
-0.0435427
-0.00737919
-0.011185
-0.0157373
-0.0210543
-0.0271041
-0.0337597
-0.0408267
-0.0483603
-0.00639894
-0.0107443
-0.0157986
-0.0215828
-0.0280452
-0.0349546
-0.0422348
-0.0513691
1.92335e-05
-0.00101405
-0.00201803
-0.00292612
-0.00367537
-0.00420017
-0.00445025
-0.00438457
-0.00211498
-0.00341473
-0.00486209
-0.00639726
-0.00795478
-0.00949628
-0.0109136
-0.0120822
-0.00407365
-0.00572203
-0.00768702
-0.00990292
-0.0123566
-0.01496
-0.0176128
-0.0201473
-0.00570559
-0.00778977
-0.0103329
-0.0133103
-0.0166897
-0.0204113
-0.0243967
-0.0285253
-0.00686198
-0.0094513
-0.012638
-0.0164079
-0.0207297
-0.0255734
-0.0308954
-0.0368062
-0.00740893
-0.0105684
-0.0144324
-0.0189813
-0.0241965
-0.0300185
-0.0363439
-0.0435386
-0.00723338
-0.0110123
-0.015527
-0.0208024
-0.0267851
-0.0332752
-0.039687
-0.0467043
-0.00628413
-0.0106561
-0.0157513
-0.0216078
-0.0281511
-0.0347585
-0.0400165
-0.0480784
-0.00411199
-0.00326841
-0.00208741
-0.000675462
-0.0130723
-0.0127507
-0.0114291
-0.00920775
-0.0226284
-0.0228496
-0.0212666
-0.017946
-0.0329722
-0.0338532
-0.0318897
-0.0270417
-0.0440168
-0.0457508
-0.0433035
-0.0363601
-0.0549227
-0.0577171
-0.0547552
-0.045146
-0.0636497
-0.0678653
-0.0648139
-0.0525269
-0.0681551
-0.072486
-0.0687035
-0.0532422
-0.00396603
-0.0031364
-0.00198094
-0.000592748
-0.01264
-0.0123364
-0.0110633
-0.00889724
-0.021745
-0.0219958
-0.0205197
-0.0173316
-0.0313433
-0.0322775
-0.030551
-0.0260147
-0.0411788
-0.0430218
-0.0410896
-0.0348592
-0.0500325
-0.052933
-0.0510123
-0.0431147
-0.0561724
-0.0602535
-0.0589357
-0.0508836
-0.0641856
-0.0727588
-0.0728587
-0.0627029
-0.00396682
-0.00318809
-0.0020668
-0.000674209
-0.0127766
-0.0126091
-0.0113923
-0.00916859
-0.0221576
-0.0226915
-0.0213288
-0.0180089
-0.0323452
-0.0338481
-0.0323836
-0.0276077
-0.0432663
-0.0461922
-0.0448778
-0.0383628
-0.053255
-0.0578247
-0.0572549
-0.0494438
-0.0624191
-0.0695245
-0.0710109
-0.0634357
-0.0861323
-0.106212
-0.11291
-0.108277
0.000764695
0.00196
0.00275204
0.00309952
0.003029
0.00260478
0.00190652
0.00101697
-0.00649231
-0.00394061
-0.0019333
-0.000599484
6.68069e-05
0.000142074
-0.000273262
-0.00108018
-0.0135502
-0.00936567
-0.00601766
-0.00368366
-0.00233481
-0.00184853
-0.00208275
-0.00290718
-0.0202752
-0.0140363
-0.00919321
-0.0058617
-0.00392222
-0.00315307
-0.00333687
-0.00429665
-0.0261462
-0.0173508
-0.010965
-0.00675889
-0.00441393
-0.00355348
-0.00385551
-0.00509029
-0.0300513
-0.0184599
-0.0106028
-0.00582295
-0.00342583
-0.00279031
-0.00346016
-0.00514726
-0.030271
-0.0157238
-0.00712303
-0.00249614
-0.00065768
-0.000700759
-0.00204202
-0.00436246
-0.0224619
-0.00673501
0.000754675
0.00378992
0.00408205
0.00274449
0.00038119
-0.00273909
0.000833974
0.00200788
0.00277906
0.00311109
0.00303252
0.00260416
0.00190226
0.00100492
-0.00621598
-0.00373369
-0.00179876
-0.000520323
0.000110382
0.000165199
-0.00026103
-0.00107286
-0.0130012
-0.00897266
-0.00577403
-0.00354475
-0.00226119
-0.00180895
-0.00205683
-0.00288065
-0.0193368
-0.0134197
-0.00884212
-0.00567456
-0.00383066
-0.00310578
-0.00330455
-0.00425637
-0.0246433
-0.0164836
-0.0105338
-0.00655776
-0.00432979
-0.00351703
-0.00382758
-0.00504176
-0.0276337
-0.0173064
-0.0101923
-0.00569742
-0.00340955
-0.00279683
-0.00345281
-0.00509874
-0.0268939
-0.0149096
-0.00718219
-0.00267388
-0.000808231
-0.000796642
-0.00207695
-0.00432519
-0.0207068
-0.00799183
-0.000479506
0.00308146
0.00368566
0.00253449
0.000296795
-0.00271839
0.000789833
0.00198039
0.00275389
0.00308579
0.00300824
0.00258575
0.0018948
0.00101285
-0.00631736
-0.003745
-0.00178267
-0.000499603
0.000129825
0.000185934
-0.000232788
-0.001029
-0.0132306
-0.00900172
-0.00573685
-0.00349038
-0.00220725
-0.00175578
-0.00199764
-0.00280493
-0.01983
-0.0135181
-0.00881057
-0.00559671
-0.00375159
-0.00303036
-0.00322067
-0.00415455
-0.0255163
-0.0166944
-0.0105199
-0.00645446
-0.00422867
-0.0034177
-0.00372349
-0.00492175
-0.0282795
-0.0173967
-0.0101593
-0.0055345
-0.00327125
-0.00266633
-0.00333073
-0.00496935
-0.0270473
-0.0153917
-0.0073533
-0.00247069
-0.000576507
-0.000609792
-0.00192812
-0.00419
-0.0297155
-0.011665
-0.000983945
0.00360199
0.00420646
0.0028791
0.000513172
-0.002571
-0.00480901
-0.00972466
-0.015347
-0.0218239
-0.0291633
-0.037045
-0.044633
-0.0488358
-0.00248663
-0.00746711
-0.0129107
-0.0189382
-0.0254558
-0.0318985
-0.0370015
-0.0363525
0.000180372
-0.00448272
-0.00927876
-0.0142689
-0.0192776
-0.0236311
-0.0259468
-0.0214606
0.00290289
-0.00107808
-0.00477061
-0.00810171
-0.0107396
-0.0118901
-0.0101747
-0.0011688
-0.0046713
-0.00938619
-0.0146541
-0.020484
-0.0266579
-0.0324345
-0.0368114
-0.0382745
-0.00237812
-0.00717085
-0.012293
-0.0177368
-0.0231993
-0.0276809
-0.0299807
-0.0282839
0.00024618
-0.0042608
-0.00881398
-0.0133926
-0.0176996
-0.0207637
-0.0215206
-0.0183537
0.00293057
-0.00092761
-0.00446251
-0.00757442
-0.00992701
-0.0106636
-0.00921643
-0.00528612
-0.00460237
-0.0094175
-0.0148506
-0.0209851
-0.0275908
-0.0330559
-0.0347578
-0.0328783
-0.00237108
-0.00732828
-0.0127328
-0.0187073
-0.0249866
-0.0294171
-0.0286396
-0.025073
0.00019075
-0.00451114
-0.00942663
-0.0147243
-0.0202733
-0.0240501
-0.0229343
-0.0204413
0.00284257
-0.00118138
-0.00504721
-0.00885939
-0.0125377
-0.0146119
-0.0129806
-0.0169012
-0.0423708
-0.0407456
-0.036956
-0.0247152
-0.0195351
-0.0135641
-0.00965887
-0.000244147
0.00179774
0.0107862
0.0145454
0.0207087
0.0268087
0.0383905
0.0417007
0.0431791
-0.0280649
-0.0323774
-0.0340577
-0.03171
-0.00608818
-0.00853443
-0.0108763
-0.0109826
0.0118159
0.0113285
0.00888029
0.0066142
0.0328124
0.0345307
0.0325369
0.028216
0.00506042
-0.0210325
-0.0341657
-0.0544801
0.0288957
-4.67639e-05
-0.0166962
-0.0427798
0.0413222
0.0158712
-0.000749598
-0.0302945
0.052558
0.0323285
0.0193525
-0.00687772
0.00344253
0.0123747
0.0140125
0.0129325
0.0104087
0.00717466
0.00353998
-0.000432623
0.0230618
0.0274923
0.0252041
0.0210643
0.0162953
0.011496
0.00682401
0.00221443
0.0375033
0.0381415
0.0331481
0.0270065
0.0208046
0.0150275
0.00975321
0.00486413
0.0495908
0.045528
0.0381822
0.0306613
0.023668
0.0174634
0.0120306
0.00722973
0.00678181
0.01125
0.0127945
0.0121679
0.00993285
0.00690992
0.00342537
-0.000427569
0.0191644
0.0229491
0.0223936
0.0195687
0.0154924
0.0110876
0.00664503
0.00218559
0.0287637
0.0310696
0.0290233
0.0248539
0.0196894
0.0144736
0.00950424
0.00479362
0.0384716
0.0376848
0.0336687
0.0282601
0.0224142
0.0168342
0.0117386
0.00712811
0.0147233
0.0149506
0.0169516
0.0149677
0.0113775
0.00761473
0.0037712
-0.000257894
0.0182168
0.0245281
0.0260536
0.0224457
0.0170533
0.0118602
0.00700971
0.0023346
0.0230576
0.0300372
0.0312155
0.0270012
0.0209238
0.0150934
0.00978646
0.00488374
0.0309233
0.0358872
0.0347198
0.0295434
0.0231743
0.0172077
0.0118914
0.0071502
0.00532747
0.00224278
-0.000107906
-0.00143765
-0.00111067
0.00203856
0.00977682
0.0256808
0.00708938
0.0048385
0.00356645
0.00361744
0.0056067
0.0104847
0.0194613
0.0343602
0.00801109
0.00640922
0.00584038
0.00661272
0.00920525
0.0142615
0.0224646
0.0343592
0.00807375
0.00692558
0.00673245
0.00773861
0.0102774
0.0147326
0.0214023
0.0304205
0.00737447
0.0064924
0.00641033
0.00731306
0.00942462
0.012963
0.0180231
0.0244303
0.00605508
0.00529248
0.00514521
0.00574607
0.00723876
0.00973917
0.0132537
0.0175679
0.00427799
0.00351306
0.00316248
0.0033306
0.00411438
0.00558162
0.00772357
0.0103839
0.00221169
0.00133804
0.00068221
0.00032862
0.000352633
0.000810044
0.00171857
0.00301833
0.00533398
0.00235447
0.000131399
-0.00101137
-0.000386939
0.00323922
0.0108506
0.0233687
0.00707314
0.00489184
0.00367953
0.00378182
0.00578599
0.0105162
0.0185604
0.0308462
0.00797703
0.00641313
0.00585487
0.00659941
0.00907318
0.0138278
0.0212664
0.0319034
0.00803383
0.00690248
0.00669826
0.0076516
0.0100667
0.0142814
0.0205029
0.0289017
0.00733689
0.00646065
0.00636143
0.00721747
0.00922895
0.0125979
0.0173902
0.0234866
0.00602455
0.00526339
0.00510191
0.00566804
0.00709332
0.00948648
0.0128523
0.0170174
0.00425445
0.00348997
0.0031343
0.00328364
0.00403141
0.00544334
0.00751351
0.0101094
0.00218991
0.00132448
0.000676625
0.000323707
0.00034116
0.000785178
0.00167394
0.00295502
0.0052509
0.0022022
-0.000141171
-0.00145711
-0.000868585
0.00367865
0.01394
0.0296126
0.0069845
0.00478302
0.0035301
0.00357881
0.00558144
0.0106116
0.0187883
0.0304734
0.00787854
0.00631325
0.00573961
0.00646594
0.00889197
0.0137367
0.0212258
0.0323717
0.00793236
0.00680847
0.00660107
0.00754378
0.00993988
0.0142228
0.0206426
0.02971
0.00724439
0.00637875
0.00628115
0.00712596
0.00912967
0.012535
0.0174516
0.023962
0.00595131
0.00520181
0.00504304
0.0056027
0.00702309
0.00942909
0.0128623
0.0172434
0.00420883
0.00345746
0.00310823
0.00325714
0.00400237
0.00541842
0.00751924
0.0102151
0.00217744
0.00132901
0.000693036
0.000347628
0.00036834
0.000814908
0.00171018
0.0030147
0.056197
0.0708346
0.0738033
0.0688856
0.0566912
0.0684362
0.0707251
0.065838
0.0494665
0.0587816
0.0611603
0.0577504
0.0406837
0.0474205
0.0494617
0.0472693
0.0312458
0.0359703
0.0376714
0.0364748
0.0220128
0.0252716
0.026697
0.0262685
0.0131571
0.0153637
0.0166023
0.0167944
0.00453333
0.00597262
0.00712768
0.00789889
0.0645383
0.0735849
0.0729975
0.0642836
0.0549938
0.0626993
0.0631312
0.0582303
0.04752
0.055143
0.0565023
0.0529788
0.0392151
0.0452649
0.0468226
0.0445344
0.0302384
0.0346715
0.0361561
0.0349166
0.0214106
0.0245494
0.0258795
0.025428
0.012855
0.0150129
0.0162085
0.0163865
0.00445917
0.00587708
0.00700879
0.00776644
0.105664
0.109852
0.102978
0.0832844
0.0671855
0.0745767
0.0726589
0.0649606
0.0538973
0.0616026
0.0618255
0.0567339
0.0427799
0.0492407
0.0502999
0.0469821
0.031886
0.0366359
0.0379265
0.0361492
0.0221231
0.0254364
0.0266902
0.0259739
0.0131504
0.0153877
0.0165454
0.016596
0.00456591
0.00599698
0.00709949
0.00780691
0.0600686
0.049767
0.0403283
0.0320285
0.0248334
0.0186888
0.0134776
0.00906021
0.0571262
0.0476124
0.0387847
0.031013
0.0243425
0.0187161
0.0140219
0.0101618
0.0505842
0.0426183
0.0350963
0.0284033
0.0226301
0.017754
0.0137158
0.0104688
0.0421343
0.0360904
0.0301678
0.0247733
0.0200482
0.0160203
0.0126796
0.0100212
0.0331583
0.0289579
0.0246357
0.0205633
0.0169057
0.0137285
0.0110592
0.00892598
0.0244037
0.0217899
0.018925
0.0160943
0.0134498
0.0110736
0.00901624
0.0073238
0.016107
0.0148506
0.0132859
0.0115898
0.00987837
0.00822979
0.00670616
0.00536733
0.00826132
0.00823303
0.00786207
0.00721229
0.00635426
0.00535496
0.00428494
0.00321438
0.0517541
0.0432015
0.0363277
0.029779
0.0236196
0.0180665
0.0131797
0.00894598
0.0500111
0.0425111
0.0356009
0.0291528
0.0233082
0.0181654
0.0137498
0.0100471
0.0460047
0.0391906
0.0328458
0.0270292
0.0218364
0.0173184
0.0134905
0.0103646
0.0394626
0.0339846
0.0287127
0.0238446
0.0194907
0.0157029
0.0125087
0.00993572
0.0316527
0.0277313
0.0237523
0.0199774
0.0165409
0.0135137
0.0109346
0.00886067
0.0235957
0.0211149
0.0184221
0.0157487
0.0132272
0.0109377
0.00893817
0.0072782
0.015714
0.014515
0.0130279
0.0114062
0.00975684
0.00815498
0.00666059
0.0053376
0.00813004
0.0081156
0.00776678
0.00713854
0.00630493
0.00532318
0.00426307
0.00319458
0.0474426
0.0411501
0.03647
0.0301845
0.0238708
0.0181773
0.013199
0.00890899
0.0487056
0.0418098
0.0354898
0.0291126
0.0232531
0.018088
0.0136663
0.009961
0.0464174
0.0390325
0.0326335
0.0268116
0.0216402
0.017151
0.0133506
0.0102529
0.040088
0.0339392
0.028487
0.0235869
0.0192572
0.0155072
0.012356
0.00981373
0.0320206
0.027673
0.0235446
0.0197391
0.0163196
0.0133316
0.0108015
0.00874755
0.0237509
0.0210379
0.0182499
0.0155522
0.0130386
0.010791
0.0088196
0.00718507
0.0157538
0.0144417
0.0129005
0.01126
0.00962976
0.00804716
0.00657557
0.00527417
0.008117
0.00806167
0.00769341
0.0070648
0.00623096
0.00526056
0.00421675
0.00316602
6.55203e-05
-0.000937343
-0.00191389
-0.00280244
-0.00354445
-0.00408257
-0.00437569
-0.00437169
-0.0020092
-0.0032721
-0.0046856
-0.006202
-0.00777904
-0.00934891
-0.0108758
-0.0122472
-0.00391445
-0.00552026
-0.00744843
-0.00967012
-0.0121308
-0.014831
-0.0177238
-0.020735
-0.0055054
-0.00754203
-0.010059
-0.0130413
-0.016488
-0.0204245
-0.024907
-0.0300416
-0.00664193
-0.00919796
-0.0123794
-0.0161916
-0.0206862
-0.0259823
-0.0322415
-0.0401736
-0.00719599
-0.0103607
-0.0142573
-0.0189508
-0.0245747
-0.03127
-0.0391891
-0.0495983
-0.00705963
-0.0108942
-0.015544
-0.0212119
-0.0280531
-0.0362228
-0.0445335
-0.0539314
-0.00617415
-0.0107045
-0.016145
-0.0228108
-0.0311488
-0.0410117
-0.0486769
-0.0581645
0.000129797
-0.000826272
-0.00175955
-0.00261287
-0.00333278
-0.00387176
-0.00419172
-0.00425027
-0.00185704
-0.00306348
-0.00441976
-0.00588436
-0.00742471
-0.00901204
-0.0106133
-0.0121504
-0.00368323
-0.00522118
-0.00707705
-0.00922897
-0.0116712
-0.0144177
-0.0174824
-0.0208235
-0.00521161
-0.00716935
-0.00960592
-0.0125274
-0.0159762
-0.0200421
-0.0248353
-0.0307069
-0.0063102
-0.00878342
-0.011887
-0.0156656
-0.0202345
-0.0257598
-0.0326322
-0.0421546
-0.00685725
-0.0099458
-0.0138035
-0.0185341
-0.0242976
-0.0314505
-0.0404421
-0.0539188
-0.00674988
-0.0105455
-0.015247
-0.0209931
-0.0281746
-0.0371582
-0.0468182
-0.0617108
-0.00592648
-0.01047
-0.0160187
-0.0229427
-0.03194
-0.0428522
-0.0504393
-0.0667304
0.000214037
-0.000676147
-0.00154542
-0.00234116
-0.0030148
-0.00352403
-0.00383361
-0.00390438
-0.00165245
-0.00277566
-0.0040403
-0.00540928
-0.00685579
-0.00835928
-0.0098909
-0.0113763
-0.00336723
-0.00479899
-0.00653007
-0.00854228
-0.0108384
-0.0134356
-0.0163443
-0.0195412
-0.00480206
-0.0066252
-0.00889893
-0.0116319
-0.0148696
-0.0186883
-0.0231862
-0.0286356
-0.0058335
-0.00813907
-0.0110366
-0.0145705
-0.0188365
-0.0239737
-0.0301987
-0.0384493
-0.00634759
-0.00923162
-0.0128366
-0.0172509
-0.0226091
-0.0290764
-0.0365658
-0.0460651
-0.00624817
-0.00980288
-0.0141965
-0.0195879
-0.0262014
-0.0340062
-0.0404856
-0.0430619
-0.00547632
-0.00975368
-0.0149832
-0.0215059
-0.0298369
-0.0392401
-0.0426689
-0.0334503
0.000316821
-0.000489625
-0.0012751
-0.00199125
-0.00259421
-0.0030467
-0.00331826
-0.00337604
-0.00139811
-0.00241209
-0.00355103
-0.00478032
-0.00607598
-0.00742113
-0.0087926
-0.0101269
-0.00297016
-0.0042574
-0.00581081
-0.0076128
-0.00966734
-0.0119958
-0.0146216
-0.0175437
-0.00428071
-0.00591264
-0.0079454
-0.0103858
-0.0132814
-0.0167247
-0.0208639
-0.0260304
-0.00521593
-0.00727042
-0.00985025
-0.0129976
-0.0168223
-0.0215321
-0.0275249
-0.0360302
-0.00567171
-0.0082292
-0.0114244
-0.0153488
-0.0201968
-0.0263444
-0.0343504
-0.0467431
-0.00556025
-0.00869637
-0.0125684
-0.0173598
-0.0234332
-0.0313394
-0.0405318
-0.0557538
-0.00482929
-0.00857928
-0.013155
-0.0189132
-0.0265596
-0.0365653
-0.045784
-0.0680712
-0.00403342
-0.00333107
-0.00225203
-0.000850334
-0.0132364
-0.0132703
-0.0121156
-0.00976656
-0.023458
-0.0244461
-0.0231925
-0.0195247
-0.0355807
-0.0380926
-0.0368446
-0.0312803
-0.0507232
-0.055696
-0.0549083
-0.0468357
-0.0684358
-0.0764245
-0.0770399
-0.0670376
-0.0966143
-0.108437
-0.112691
-0.105858
-0.184031
-0.211837
-0.228306
-0.24494
-0.00400087
-0.003366
-0.00233889
-0.00095485
-0.0133591
-0.013552
-0.0124656
-0.0100603
-0.0240809
-0.0254167
-0.0242682
-0.0203939
-0.0376219
-0.0408958
-0.0398516
-0.0337521
-0.0563074
-0.0630618
-0.0627276
-0.0534465
-0.0822848
-0.0939617
-0.095594
-0.0833426
-0.139666
-0.15855
-0.164411
-0.154339
-0.339147
-0.381631
-0.402597
-0.420662
-0.00369144
-0.00311998
-0.00217071
-0.000872021
-0.0125838
-0.0128142
-0.0118152
-0.00953869
-0.0226796
-0.0239914
-0.0229453
-0.0192952
-0.0350167
-0.0380212
-0.0370819
-0.0314769
-0.0504835
-0.0560042
-0.0556615
-0.0477272
-0.0657793
-0.0730358
-0.0742166
-0.0660171
-0.0775413
-0.0830402
-0.0886775
-0.0915818
-0.122497
-0.135222
-0.156098
-0.201985
-0.00318379
-0.00267045
-0.00181844
-0.000654564
-0.0112257
-0.0114422
-0.0105515
-0.00851226
-0.0204467
-0.0216896
-0.0207697
-0.0174716
-0.0322092
-0.0352077
-0.0344062
-0.0291692
-0.0488123
-0.0549774
-0.0547969
-0.0466813
-0.0729169
-0.0838175
-0.0853342
-0.0742098
-0.131916
-0.151143
-0.156937
-0.145796
-0.348978
-0.391966
-0.409961
-0.415874
0.000674217
0.00190289
0.00268971
0.00302764
0.00295872
0.00255068
0.0018819
0.00102867
-0.00662432
-0.00387084
-0.00182395
-0.000504495
0.000141102
0.000208669
-0.000188358
-0.000956763
-0.0139242
-0.00924538
-0.00578746
-0.00345971
-0.00214158
-0.00169198
-0.00190574
-0.00268317
-0.0212995
-0.0139988
-0.00891301
-0.0055447
-0.00363954
-0.00291843
-0.00308789
-0.00399354
-0.0282364
-0.0174541
-0.0106583
-0.00636178
-0.00406078
-0.00326168
-0.00355601
-0.00473403
-0.0315825
-0.0178985
-0.0100717
-0.00522943
-0.0029616
-0.00243269
-0.0031248
-0.00476782
-0.0268165
-0.0143042
-0.00648274
-0.00155343
3.97072e-05
-0.000221682
-0.0016604
-0.00398003
-0.020275
-0.00477544
0.00290964
0.00633232
0.00568987
0.00363792
0.000917405
-0.00234167
0.000583618
0.00181608
0.00259942
0.00293834
0.00287956
0.00249392
0.00185863
0.00104701
-0.0067478
-0.00389915
-0.00181902
-0.00049113
0.000160483
0.000242273
-0.000126992
-0.000855032
-0.0142507
-0.00929544
-0.0057352
-0.00337561
-0.00205317
-0.00158121
-0.00177362
-0.0025092
-0.0222021
-0.0142229
-0.00888845
-0.00542924
-0.00349807
-0.00275697
-0.00290412
-0.00376445
-0.03042
-0.0181094
-0.0107624
-0.00625378
-0.00389991
-0.00306864
-0.0033406
-0.00447162
-0.0355451
-0.0192976
-0.0104215
-0.00512892
-0.0027635
-0.0022233
-0.0028968
-0.00449699
-0.0353879
-0.017534
-0.00747088
-0.00144093
0.000308305
1.79302e-05
-0.00142799
-0.00372194
-0.0401191
-0.0121347
0.00151851
0.00686516
0.00624501
0.00400825
0.00118079
-0.00210594
0.000586305
0.0017544
0.00249667
0.00282002
0.00276967
0.00241312
0.00182294
0.00106788
-0.00637217
-0.00365751
-0.00167972
-0.000416784
0.000206758
0.000291822
-4.61403e-05
-0.000720915
-0.0134441
-0.00874831
-0.00537853
-0.0031416
-0.00188327
-0.00142728
-0.00159757
-0.00227689
-0.0206929
-0.0132988
-0.00832744
-0.00507622
-0.00325163
-0.00253916
-0.0026642
-0.00345791
-0.0272348
-0.0165226
-0.00995559
-0.00581438
-0.00362001
-0.00283307
-0.00307613
-0.00412296
-0.0278391
-0.016193
-0.0091417
-0.00460376
-0.00251046
-0.0020255
-0.00265495
-0.00414619
-0.0168747
-0.0111321
-0.00516445
-0.000820576
0.000474577
0.000114332
-0.00125973
-0.00341236
-0.00217918
-0.0025009
0.00421961
0.0073366
0.00621046
0.0039395
0.00122698
-0.00188036
0.000651032
0.00170395
0.00237741
0.0026736
0.0026312
0.00231024
0.00177599
0.00109119
-0.00567836
-0.00322978
-0.00143801
-0.000290902
0.00027785
0.000358249
5.39812e-05
-0.000555945
-0.0121965
-0.00791924
-0.00484484
-0.00280475
-0.00165413
-0.00123195
-0.00137975
-0.00198924
-0.0191957
-0.0122597
-0.00763233
-0.00463237
-0.00294922
-0.00227748
-0.00237381
-0.00307828
-0.0266409
-0.0158069
-0.00937612
-0.00543698
-0.00335544
-0.00259178
-0.00277534
-0.00369445
-0.0318509
-0.017182
-0.00929749
-0.0046276
-0.00249025
-0.00192843
-0.00242545
-0.0037247
-0.0336597
-0.0160443
-0.00700286
-0.00167157
1.144e-05
-8.45063e-05
-0.00119969
-0.00306464
-0.0402543
-0.0100965
0.0007605
0.00521203
0.0049239
0.00325155
0.00100311
-0.00168033
-0.00456798
-0.0096768
-0.0157435
-0.0233787
-0.0333884
-0.0458039
-0.0682449
-0.141153
-0.00242616
-0.00778711
-0.0140395
-0.0220233
-0.0329025
-0.0467482
-0.0736044
-0.169947
4.88102e-05
-0.00508618
-0.0109376
-0.0184867
-0.0292831
-0.0441132
-0.0752491
-0.188688
0.00266359
-0.00171778
-0.0063779
-0.0121566
-0.0205949
-0.0335292
-0.0684075
-0.212321
-0.00441311
-0.00961262
-0.0158937
-0.0240382
-0.0349161
-0.0479872
-0.0679318
-0.127062
-0.0023895
-0.00788602
-0.014467
-0.0231732
-0.035315
-0.050095
-0.0750204
-0.164383
-1.71175e-05
-0.00531726
-0.0115643
-0.0199906
-0.032406
-0.0488905
-0.0799346
-0.191791
0.00251718
-0.00199486
-0.00699733
-0.0135781
-0.0236086
-0.0386671
-0.0771154
-0.234558
-0.00405534
-0.00897083
-0.0149415
-0.0227241
-0.0331038
-0.0453713
-0.0641446
-0.123102
-0.00215786
-0.0073811
-0.013678
-0.0220934
-0.0339408
-0.0484158
-0.0730517
-0.162995
6.11883e-05
-0.00498694
-0.0110008
-0.0192378
-0.0315654
-0.0481556
-0.0795634
-0.191703
0.00244578
-0.00185175
-0.00668699
-0.0132028
-0.0234253
-0.0392965
-0.0794821
-0.236774
-0.00350267
-0.00777961
-0.0129269
-0.019575
-0.02857
-0.0400791
-0.0610458
-0.127814
-0.00174611
-0.00627031
-0.0116515
-0.0187465
-0.0287701
-0.0418814
-0.0681587
-0.163911
0.000291583
-0.00406997
-0.00917651
-0.0160498
-0.0263395
-0.0409896
-0.0726605
-0.188861
0.00246419
-0.00124593
-0.00532123
-0.0106536
-0.0189076
-0.0320894
-0.0687489
-0.222361
0.203172
0.0706762
0.0361672
0.0232477
0.0148459
0.00906808
0.00440146
5.68168e-06
0.183756
0.0776603
0.0465413
0.0317875
0.0210573
0.0135341
0.00770131
0.00257387
0.166386
0.0760566
0.049087
0.0353107
0.024517
0.0165837
0.0103729
0.00504089
0.136927
0.0701601
0.0479915
0.0357181
0.0258362
0.018281
0.0122757
0.00720978
0.221776
0.0785937
0.0411786
0.0263084
0.016346
0.00975954
0.00474238
0.000214439
0.187788
0.0821414
0.0512255
0.0350084
0.0226813
0.0142593
0.00801234
0.00271013
0.162501
0.0774943
0.0524278
0.0378661
0.0258139
0.0171258
0.0105597
0.0050739
0.122837
0.0696461
0.050205
0.0374007
0.0266475
0.0185482
0.012298
0.00712474
0.225451
0.0810863
0.0417869
0.0261255
0.0159879
0.00947542
0.00463035
0.000321377
0.187805
0.0817484
0.0504909
0.0341956
0.0219687
0.0137389
0.0077244
0.00267428
0.161098
0.0754465
0.0507693
0.0365428
0.0247919
0.0163917
0.0101041
0.00488839
0.119563
0.0661295
0.0476717
0.0356588
0.0254017
0.0176562
0.0117072
0.00680871
0.210672
0.0703434
0.0345294
0.0215384
0.0133957
0.00809392
0.00402515
0.000312731
0.18271
0.0746349
0.0433492
0.028924
0.0187494
0.0119084
0.00681493
0.00245775
0.159227
0.0702623
0.0442494
0.031336
0.0214249
0.0143673
0.00900571
0.0044923
0.121918
0.062553
0.0423496
0.0311037
0.0222463
0.015651
0.0105308
0.00627022
0.00508838
0.00186338
-0.000826659
-0.00285767
-0.00351888
-0.000200204
0.00622809
0.0131661
0.00682393
0.00455656
0.00318097
0.00299929
0.00469456
0.0097571
0.0175814
0.0299875
0.00770952
0.00612993
0.0055219
0.00616541
0.00859151
0.0136502
0.0217102
0.0356625
0.00776382
0.00665041
0.00644625
0.00737139
0.00983623
0.0143484
0.0213986
0.0324955
0.00709279
0.00624705
0.00616291
0.00699973
0.00906011
0.0126208
0.0179304
0.0254835
0.00583275
0.00510684
0.00497047
0.00552079
0.00697555
0.0094644
0.0131011
0.0179626
0.00413708
0.0034096
0.0030781
0.00323554
0.00399632
0.00545063
0.00764275
0.0105364
0.00216349
0.00134028
0.000725234
0.000394456
0.000425431
0.000881689
0.00179634
0.00314901
0.00490182
0.00164405
-0.00115515
-0.0033783
-0.00404431
0.00110613
0.0126002
0.0277154
0.00660077
0.00435068
0.00296166
0.00274506
0.00459364
0.0107614
0.0208511
0.0391256
0.00746073
0.00591401
0.00531614
0.00596578
0.00848934
0.0140214
0.0232397
0.0403121
0.0075125
0.00643647
0.00624642
0.00719787
0.00971194
0.014448
0.0221024
0.0349047
0.00686641
0.00605782
0.00598858
0.00683719
0.00892098
0.0125775
0.0181616
0.0264653
0.00565586
0.00496545
0.00484395
0.00541557
0.00686768
0.00938924
0.0131403
0.0183102
0.00402957
0.00333839
0.00303061
0.00319891
0.00396283
0.00542586
0.00765703
0.0106603
0.00213901
0.00135541
0.000772053
0.000462431
0.000503061
0.000961374
0.00187642
0.00324033
0.00470237
0.00161578
-0.00107831
-0.00335051
-0.00454727
-0.0016731
0.00313507
-0.00791107
0.006307
0.00418807
0.00285859
0.0025544
0.00391675
0.0083282
0.0141796
0.0195064
0.00711613
0.00566759
0.00510126
0.00567847
0.00790553
0.0126375
0.0199111
0.0319363
0.00716187
0.00615989
0.00598698
0.00687805
0.00921564
0.0135583
0.0203848
0.0314771
0.00655152
0.00580103
0.00574418
0.0065536
0.00851625
0.0119493
0.0171519
0.0248448
0.00541086
0.00477014
0.00466285
0.00520903
0.00658777
0.00897697
0.0125291
0.0174332
0.00388034
0.00323802
0.00295595
0.00312112
0.00385007
0.00524137
0.00736498
0.0102321
0.00210251
0.00137321
0.000831775
0.000547247
0.000591637
0.00102969
0.00189971
0.0031969
0.00450592
0.00183276
-0.000413532
-0.00211152
-0.00250058
0.00168853
0.0106976
0.0297016
0.00595582
0.00411328
0.00302667
0.00296561
0.00469807
0.0101295
0.0192378
0.0376054
0.00668429
0.00541657
0.00496727
0.00559969
0.00784895
0.0127059
0.0208913
0.0363717
0.00671727
0.00583276
0.00570529
0.00655284
0.00875725
0.0128791
0.0195756
0.0308631
0.00615144
0.00548151
0.0054417
0.00619658
0.00799767
0.0111594
0.0160038
0.0232396
0.00509986
0.00452213
0.00442797
0.00492819
0.00618419
0.00835999
0.0116014
0.0160769
0.00369047
0.00310811
0.00285267
0.00300377
0.00366627
0.00492877
0.00685354
0.00944397
0.00205396
0.00139205
0.000901544
0.00064549
0.00068871
0.00108902
0.00187923
0.00305104
0.233136
0.220536
0.205163
0.176519
0.110361
0.117482
0.113204
0.10065
0.0720033
0.0820126
0.0812446
0.0728292
0.0515447
0.0596979
0.0603383
0.0549906
0.0357291
0.0413597
0.042494
0.0397163
0.0237216
0.0274331
0.0286131
0.0274493
0.0137896
0.0161775
0.0172909
0.0171447
0.00477346
0.00622409
0.00728977
0.00791841
0.403154
0.395293
0.376335
0.329765
0.1624
0.173568
0.167923
0.147705
0.0896859
0.102091
0.100412
0.0882224
0.0586623
0.0681602
0.0684107
0.0612226
0.0384064
0.0446557
0.0456296
0.0420634
0.024665
0.0286247
0.0297248
0.0282113
0.0141065
0.0165709
0.0176293
0.0173263
0.00488911
0.00633004
0.00734822
0.00791089
0.190129
0.153656
0.134811
0.118461
0.0960912
0.0944048
0.0891672
0.082538
0.0709252
0.079173
0.0780519
0.070548
0.0525198
0.0606228
0.0609326
0.0551056
0.0359853
0.0417379
0.0426352
0.0393872
0.0234934
0.0272371
0.0282522
0.0267832
0.013534
0.0158757
0.0168561
0.016525
0.004765
0.00612222
0.00706542
0.00756709
0.397965
0.398187
0.381616
0.336691
0.154492
0.166462
0.16074
0.140243
0.0803508
0.0917254
0.0902041
0.0788206
0.0516121
0.0599805
0.0601311
0.0536015
0.0335929
0.0390015
0.0397757
0.0365319
0.021559
0.0249571
0.0258564
0.0244685
0.012407
0.0145119
0.0153898
0.0150822
0.00445866
0.00567833
0.00652616
0.00697578
0.0550769
0.0497412
0.0430391
0.0334785
0.0252999
0.01873
0.0133574
0.00887957
0.0563375
0.0471225
0.0388372
0.0306676
0.0238628
0.0182414
0.0136409
0.00985737
0.0530395
0.042324
0.0342182
0.0274238
0.0217719
0.0170839
0.0132137
0.0100889
0.0438568
0.0355999
0.0291326
0.0237136
0.0191585
0.0153274
0.0121545
0.00962625
0.0337959
0.0283874
0.0237136
0.0196504
0.0161297
0.0131127
0.010588
0.00856721
0.0244875
0.0212703
0.0182145
0.0153954
0.012855
0.0105858
0.00863774
0.00703639
0.0159978
0.0144686
0.0128035
0.0111219
0.00946042
0.00788727
0.00644262
0.00517278
0.00814226
0.00801616
0.00759745
0.00694825
0.00611616
0.00516135
0.00414258
0.00312143
0.0619123
0.0511523
0.0449852
0.0344343
0.0255736
0.0187123
0.0132039
0.00869288
0.065098
0.0498146
0.0400506
0.0309829
0.0237814
0.0180434
0.0133618
0.00959413
0.0580812
0.0439624
0.0346447
0.0273123
0.0214669
0.01671
0.0128536
0.00978544
0.0462275
0.0362427
0.0290835
0.0233821
0.0187175
0.0148936
0.0117781
0.00931735
0.0346757
0.0284687
0.0234417
0.0192193
0.0156726
0.012697
0.0102387
0.0082855
0.0246854
0.0211122
0.0178652
0.0149823
0.0124458
0.0102351
0.00835012
0.00680894
0.0159495
0.0142452
0.0124959
0.0107876
0.00915584
0.00762854
0.00623625
0.00501873
0.00803776
0.00784276
0.00739177
0.00673798
0.0059255
0.00500408
0.0040273
0.00305184
0.0303949
0.0436585
0.0414428
0.032403
0.0242066
0.0177357
0.0125337
0.00827783
0.0458716
0.0434307
0.036946
0.0290787
0.022441
0.0170445
0.0126574
0.00911855
0.0498792
0.0400554
0.0323182
0.025684
0.0202381
0.0157839
0.0121677
0.00929261
0.04244
0.0338234
0.0273404
0.0220296
0.01766
0.0140707
0.011151
0.00884819
0.0325927
0.0268385
0.0221164
0.0181393
0.0147983
0.0120042
0.00970142
0.00787541
0.0233974
0.0199802
0.0168925
0.0141585
0.0117654
0.00969057
0.00792587
0.00648594
0.0151598
0.0135122
0.0118355
0.0102123
0.00867437
0.00724167
0.00593922
0.00480234
0.00766258
0.00745915
0.00702187
0.00640079
0.00563697
0.00477473
0.00386271
0.00295295
0.0631918
0.0466407
0.0387863
0.0291358
0.021626
0.0159225
0.0113735
0.0076412
0.0593003
0.0435958
0.0342979
0.0263191
0.0202237
0.0154282
0.0115605
0.00843503
0.0509005
0.0378901
0.0295862
0.0232717
0.0183404
0.0143771
0.0111684
0.00861439
0.040059
0.0311348
0.0248809
0.0200058
0.0160833
0.0128822
0.0102783
0.00822186
0.02994
0.0244747
0.0201234
0.0165325
0.0135401
0.0110409
0.00897817
0.00733965