/*--------------------------------*- C++ -*----------------------------------*\
  =========                 |
  \\      /  F ield         | OpenFOAM: The Open Source CFD Toolbox
   \\    /   O peration     | Website:  https://openfoam.org
    \\  /    A nd           | Version:  7
     \\/     M anipulation  |
\*---------------------------------------------------------------------------*/
FoamFile
{
    version     2.0;
    format      ascii;
    class       surfaceScalarField;
    location    "0.75";
    object      phi;
}
// * * * * * * * * * * * * * * * * * * * * * * * * * * * * * * * * * * * * * //

dimensions      [0 3 -1 0 0 0 0];

internalField   nonuniform List<scalar> 
22560
(
1.19991
0.00995856
-5.06042e-05
1.19961
0.0112327
-6.64999e-05
1.19884
0.0132949
-6.45753e-05
1.19762
0.0161324
-4.60272e-05
1.19597
0.0196917
1.02987e-05
1.19396
0.0238102
0.000105944
1.19174
0.0281698
0.000231557
0.0322472
0.000369151
1.18952
1.20119
0.00908466
-7.90066e-05
1.20167
0.0108277
-7.74921e-05
1.20167
0.0133412
-4.90535e-05
1.20115
0.0166181
4.12316e-05
1.20002
0.0206069
0.000212525
1.19821
0.0251362
0.000485345
1.19566
0.0298492
0.000862712
0.0341459
0.0013136
1.19245
1.20294
0.00745748
-8.82763e-05
1.20419
0.0096429
-6.38509e-05
1.20495
0.0125536
3.0181e-05
1.20511
0.0162263
0.000231369
1.20448
0.0206443
0.00058892
1.20281
0.0256593
0.00115143
1.19981
0.0309011
0.00194447
0.0356826
0.0029242
1.19535
1.20514
0.00512056
-7.69818e-05
1.20713
0.00765433
5.00758e-06
1.20864
0.0108331
0.000203765
1.20953
0.0147522
0.000588136
1.20946
0.0194551
0.00125584
1.20796
0.0248443
0.00231429
1.20446
0.0305622
0.00384406
0.035841
0.00580899
1.19849
1.20772
0.00214869
-2.56432e-05
1.21036
0.00486311
0.000146544
1.21262
0.0080653
0.000504775
1.21428
0.0119134
0.00117801
1.21488
0.0165151
0.00234686
1.21366
0.0218277
0.00423362
1.20966
0.0275102
0.00704788
0.0327105
0.0108346
1.20196
1.2105
-0.0012777
5.91803e-05
1.21366
0.0013452
0.000362055
1.21658
0.00418545
0.000952857
1.21901
0.0074365
0.0020513
1.22031
0.0112325
0.00397979
1.21945
0.0155239
0.00716866
1.21495
0.0199121
0.0120897
0.0233124
0.0190438
1.20531
1.21322
-0.00484667
0.000161721
1.21662
-0.00268754
0.000638569
1.21998
-0.000713706
0.00153172
1.22299
0.00123314
0.00319886
1.22483
0.00321947
0.00617445
1.22412
0.00500743
0.0112273
1.21881
0.00589295
0.0193215
0.00388682
0.0314189
1.20682
1.21549
0.000257569
-0.00811758
1.21871
0.000935016
-0.00684961
1.22208
0.00216934
-0.00625134
1.22513
0.00447013
-0.00628249
1.2268
0.00866086
-0.00711514
1.22525
0.015922
-0.00936525
1.21779
0.0279116
-0.0145567
0.0460629
1.20208
-0.0264605
0.210648
0.0144876
-0.000111241
0.210202
0.0163825
-0.000178959
0.209085
0.0194362
-0.00020467
0.2073
0.0236493
-0.000178108
0.204889
0.0289474
-7.77216e-05
0.201948
0.0351034
0.000123184
0.198682
0.0416583
0.000391955
0.0478355
0.000697127
0.19541
0.212547
0.0132317
-0.000214692
0.213261
0.0158325
-0.000241375
0.21328
0.0195711
-0.000203032
0.212534
0.0244669
-3.04499e-05
0.210913
0.0304589
0.000321706
0.208287
0.0373156
0.000899178
0.204572
0.0445287
0.00170773
0.0512058
0.00268571
0.199829
0.215155
0.0108985
-0.000270641
0.217012
0.014154
-0.0002425
0.218169
0.0185113
-6.74718e-05
0.218475
0.0240484
0.000344539
0.217644
0.0307764
0.0011019
0.215279
0.0385225
0.00231019
0.210936
0.0467816
0.00403463
0.0545442
0.00618903
0.204332
0.218443
0.00752208
-0.000265199
0.221415
0.0113141
-0.000127213
0.223743
0.0161068
0.000280304
0.2252
0.02209
0.00108933
0.225311
0.0293939
0.00252696
0.223342
0.0379634
0.00484311
0.218364
0.0473648
0.008238
0.0565209
0.0126702
0.209526
0.222308
0.00321953
-0.000180683
0.226308
0.00729979
0.000161299
0.229835
0.0121771
0.00090667
0.232595
0.0181584
0.00235003
0.233911
0.0255138
0.00491116
0.232649
0.0343354
0.00912387
0.227226
0.0443085
0.0155262
0.0543531
0.0243584
0.21587
0.226513
-0.00175539
-8.23921e-06
0.231354
0.00221099
0.000609935
0.236024
0.00659816
0.00186166
0.24018
0.0118017
0.00425166
0.242952
0.0181706
0.00855086
0.242757
0.0258682
0.0158311
0.237177
0.0346306
0.0273477
0.043262
0.0442132
0.223099
0.230659
-0.00695414
0.000212699
0.235969
-0.00366426
0.00120342
0.241524
-0.000545276
0.0031203
0.246931
0.00279923
0.00679484
0.25113
0.00659446
0.0135509
0.252087
0.010775
0.025364
0.246476
0.0147298
0.0448333
0.0164022
0.0755015
0.229253
0.234149
0.000436772
-0.0117399
0.239348
0.00185479
-0.00978251
0.245162
0.00452802
-0.00871783
0.251113
0.00969477
-0.00837684
0.255818
0.0194284
-0.00887795
0.256618
0.0368847
-0.0109875
0.249229
0.0667459
-0.0167158
0.115182
0.22802
-0.0315086
0.0386193
0.0151604
-0.000222772
0.038188
0.0171994
-0.000376835
0.0370663
0.0205074
-0.000482833
0.0352546
0.0251014
-0.000508802
0.0327822
0.0309426
-0.000428057
0.0297513
0.0378528
-0.000238126
0.0263361
0.0453514
8.56526e-05
0.0525993
0.0228538
0.000482126
0.0406623
0.0138872
-0.000452424
0.0414959
0.0167039
-0.000579469
0.0416331
0.0207843
-0.000617143
0.0410124
0.0261958
-0.000504083
0.0395176
0.0329547
-0.000195541
0.0369529
0.0408652
0.00045147
0.0331667
0.0494638
0.00138155
0.0577867
0.0281026
0.00256236
0.0434923
0.011499
-0.000622452
0.04559
0.0150553
-0.000691543
0.0470333
0.019875
-0.000601466
0.0476986
0.0261433
-0.000268276
0.0472483
0.0339619
0.000544953
0.0452161
0.0433142
0.00189345
0.0409716
0.0538157
0.00392712
0.0644625
0.033908
0.00657688
0.0470903
0.00802206
-0.000695707
0.0504641
0.0122075
-0.000653186
0.0533421
0.0176301
-0.000352846
0.0555007
0.0246012
0.000472888
0.0564628
0.0334801
0.00204664
0.0553666
0.0445088
0.00474466
0.0509394
0.0575985
0.00888243
0.0719639
0.041569
0.0145393
0.0513652
0.00356202
-0.000645975
0.0560117
0.00815047
-0.000428258
0.0604501
0.0138095
0.000288898
0.0644866
0.0210835
0.00183121
0.0674871
0.0306168
0.00477398
0.0681839
0.0430622
0.00987372
0.0644245
0.058881
0.018003
0.0780692
0.0528044
0.0298732
0.0561118
-0.0016291
-0.000476353
0.0618913
0.0029257
5.52128e-05
0.0680039
0.00821104
0.00134755
0.0743391
0.0149715
0.00402838
0.0802215
0.0241135
0.00917171
0.0840391
0.0367194
0.0183564
0.0825601
0.0540124
0.0336952
0.077613
0.0694611
0.0577684
0.0609021
-0.00709653
-0.000215483
0.0674951
-0.00321782
0.000753993
0.0752094
0.000794074
0.00282293
0.084096
0.00575728
0.0071225
0.0936489
0.0125791
0.0155323
0.102223
0.0223541
0.031155
0.105856
0.0369044
0.0583084
0.0598982
0.094646
0.104426
0.0650606
-0.0121853
0.000113862
0.0718997
-0.00976467
0.00156256
0.0806841
-0.00803149
0.00456911
0.0917364
-0.00643945
0.0108392
0.104732
-0.00450257
0.0235144
0.118158
-0.00220406
0.048017
0.127326
0.00208223
0.0923998
0.122078
0.0102463
0.170082
1.18758
0.0353289
0.000488004
1.18624
0.0366687
0.000552241
1.18574
0.0358454
0.000538824
0.0329557
0.000445858
1.18625
1.18885
0.0371865
0.00174286
1.18546
0.038077
0.00198513
1.18301
0.0363497
0.0019441
0.0321897
0.00161179
1.18216
1.18969
0.0389576
0.00388841
1.18382
0.0395229
0.00442796
1.17908
0.0367684
0.00431809
0.0309263
0.00352809
1.17682
1.19023
0.0393872
0.00783222
1.18119
0.0396064
0.00895361
1.17355
0.0356901
0.00871513
0.0278046
0.00701148
1.16966
1.19048
0.0359124
0.0149604
1.17744
0.0354316
0.0172122
1.16606
0.0302981
0.016774
0.0203356
0.0133194
1.16021
1.19019
0.0239499
0.0270861
1.17249
0.0217744
0.0313495
1.15649
0.0156888
0.0306136
0.00448654
0.0239284
1.14841
1.18865
-0.00382776
0.045951
1.16671
-0.00975007
0.0534605
1.14606
-0.016155
0.0524968
-0.0247804
0.0409412
1.13438
1.1824
0.065055
-0.0492068
1.15958
0.0770464
-0.0639728
1.13679
0.0767057
-0.0700734
0.0592266
1.12329
-0.070505
0.192552
0.0525407
0.000972845
0.190554
0.0545837
0.00113662
0.18981
0.0533032
0.00113691
0.0488494
0.000968604
0.190571
0.194452
0.0560291
0.00363135
0.189353
0.0574909
0.00417685
0.185662
0.0548252
0.00411392
0.0483056
0.00343093
0.184386
0.195781
0.0601284
0.00834029
0.186833
0.0613138
0.00955279
0.17959
0.0570575
0.00932949
0.0476651
0.00762681
0.176131
0.196835
0.0633215
0.0173307
0.182791
0.0643856
0.019926
0.170853
0.0583299
0.0193807
0.0452623
0.0155337
0.164733
0.197795
0.0620169
0.0343404
0.176982
0.0626822
0.0397283
0.158707
0.0547438
0.0386356
0.0374928
0.0303697
0.149426
0.198485
0.0485995
0.0651173
0.169285
0.0473573
0.0758744
0.142531
0.038165
0.0739466
0.0186846
0.0572963
0.127971
0.19807
0.00796919
0.117764
0.160345
0.000253335
0.138289
0.124023
-0.00845511
0.135439
-0.0221752
0.103897
0.101927
0.193189
0.172372
-0.0645165
0.150733
0.204797
-0.0850415
0.107627
0.204687
-0.0933304
0.159062
0.0812158
-0.0955995
0.0197382
0.0582934
0.000872006
0.017486
0.0608578
0.00115099
0.01656
0.0594233
0.001244
0.0541428
0.0172818
0.00113842
0.0220584
0.0641921
0.00377678
0.0161328
0.066449
0.00451125
0.0116936
0.0634383
0.00453807
0.0554119
0.0100316
0.00382388
0.0240182
0.0730822
0.00933993
0.013266
0.0758064
0.0109477
0.00430158
0.0709282
0.010804
0.0586385
-0.000120561
0.00882232
0.0262202
0.0849514
0.0208103
0.00857137
0.0890546
0.0243267
-0.00697548
0.0820244
0.0238313
0.0633798
-0.0152233
0.0190402
0.0296608
0.0982062
0.0442293
0.00169715
0.104795
0.0519513
-0.0240694
0.0955867
0.05084
0.0683016
-0.0385252
0.0399037
0.0351142
0.106863
0.0908076
-0.00758367
0.116019
0.107348
-0.0489563
0.105512
0.105394
0.0691476
-0.0743399
0.0818339
0.0439854
0.093087
0.1822
-0.0177776
0.100001
0.216071
-0.0810776
0.0900847
0.214166
0.0499702
-0.126685
0.168682
0.0533807
0.0393711
0.294785
-0.0212905
0.0354523
0.344017
-0.101679
0.0293644
0.345796
-0.187227
0.00804253
0.286538
1.18774
0.0286446
0.000308731
1.18986
0.0239018
0.000198974
1.19223
0.0194634
0.00013359
1.1945
0.0157279
9.8679e-05
1.19647
0.0128579
7.5788e-05
1.19803
0.0108804
5.31173e-05
1.19911
0.00976495
2.92786e-05
0.00946645
-1.57002e-05
1.18317
0.0265336
0.00110187
1.18553
0.0208804
0.000667803
1.18853
0.0160818
0.000376688
1.19163
0.0124249
0.000201593
1.19448
0.00991211
9.95735e-05
1.19689
0.00843207
3.63777e-05
1.19881
0.00785628
-1.03948e-05
0.00808835
-4.59818e-05
1.17771
0.0233381
0.0022998
1.18079
0.016487
0.00131303
1.18486
0.0113264
0.0006831
1.18908
0.00788841
0.000320109
1.19296
0.00591069
0.000124155
1.19628
0.00508513
2.04272e-05
1.19903
0.005154
-4.11396e-05
0.00596556
-7.64779e-05
1.17104
0.0177127
0.00424861
1.17561
0.00967084
0.0022472
1.18133
0.00453475
0.00107655
1.18699
0.00177074
0.000448836
1.19205
0.000716703
0.000139884
1.1963
0.000831145
-4.16115e-07
1.19982
0.00170327
-6.7019e-05
0.0031494
-9.17584e-05
1.16311
0.00761668
0.00719207
1.1703
-0.000933358
0.0034175
1.17834
-0.00496538
0.0014595
1.18576
-0.0061635
0.000512597
1.19201
-0.0056391
0.000108944
1.1971
-0.00421369
-4.90746e-05
1.20125
-0.00234771
-9.84385e-05
-0.000226697
-9.39634e-05
1.1545
-0.00962603
0.0111532
1.16559
-0.0165078
0.00447844
1.17669
-0.0175657
0.00150362
1.186
-0.0157524
0.000280842
1.19328
-0.0128044
-0.000118229
1.19891
-0.00964109
-0.000198718
1.20338
-0.00664422
-0.000172119
-0.00388617
-9.5393e-05
1.14677
-0.036906
0.014889
1.16359
-0.0374066
0.00408435
1.17792
-0.0322838
0.000386245
1.18866
-0.0258104
-0.000683712
1.19634
-0.0197383
-0.000744608
1.2019
-0.0146483
-0.000551284
1.20618
-0.0105917
-0.000333351
-0.00740232
-0.00011826
1.1453
0.0107211
-0.0696403
1.16785
-0.00202325
-0.0579305
1.18405
-0.00389612
-0.0445892
1.19468
-0.00321218
-0.0332304
1.2015
-0.00210809
-0.0244467
1.20606
-0.00122584
-0.0179839
1.20948
-0.00062535
-0.0133846
-0.000188189
-0.0102119
0.192783
0.0422361
0.000705363
0.195932
0.0350632
0.000487823
0.199414
0.0284319
0.000351515
0.202751
0.0229006
0.000270522
0.205637
0.0186805
0.000211656
0.20791
0.0157905
0.000149507
0.209511
0.0141694
7.27495e-05
0.0137493
-2.25217e-05
0.185936
0.0394169
0.00237166
0.189478
0.0307296
0.00145897
0.193952
0.0234949
0.000839418
0.198539
0.0180559
0.000459767
0.202727
0.0143595
0.000232032
0.206265
0.0122059
8.37304e-05
0.209072
0.0113854
-3.325e-05
0.0117518
-0.000131919
0.177611
0.0352539
0.0049828
0.18235
0.0244553
0.00284872
0.188488
0.0165586
0.0014809
0.194769
0.0114047
0.000690643
0.2005
0.0084941
0.000259057
0.205392
0.00731089
2.31397e-05
0.209413
0.00744619
-0.000123529
0.008671
-0.000221355
0.167184
0.027636
0.0094155
0.174398
0.0145531
0.00493608
0.183144
0.00655389
0.00233507
0.191663
0.0023801
0.000954804
0.19917
0.000851287
0.000275197
0.205442
0.00108028
-4.16073e-05
0.210607
0.00241183
-0.000197846
0.00458085
-0.000272605
0.154379
0.0133731
0.0165023
0.166007
-0.0013106
0.00765238
0.178531
-0.00769511
0.00318453
0.189802
-0.0094564
0.00107827
0.199123
-0.00855198
0.000191479
0.206643
-0.00633638
-0.000152677
0.212745
-0.00350868
-0.000279681
-0.000329955
-0.000288715
0.139655
-0.0130126
0.0258555
0.158256
-0.0254797
0.0100461
0.175883
-0.0270532
0.00323505
0.190165
-0.0239815
0.000523785
0.201068
-0.0192561
-0.000317084
0.209373
-0.0143536
-0.000486021
0.215936
-0.0098018
-0.000442395
-0.00566277
-0.000297314
0.125357
-0.0574205
0.0358677
0.154421
-0.0594202
0.00896044
0.177696
-0.0504257
0.000483664
0.194316
-0.0395472
-0.00173797
0.205771
-0.0297555
-0.00169969
0.213911
-0.0217931
-0.00125244
0.220155
-0.0155961
-0.000783045
-0.010793
-0.000343704
0.121611
0.0269816
-0.114076
0.161348
-0.00675413
-0.0944269
0.187889
-0.0100935
-0.0707687
0.204039
-0.00759823
-0.0513118
0.213883
-0.00478225
-0.036925
0.220313
-0.00270928
-0.0267395
0.225159
-0.00138476
-0.0196834
-0.000471665
-0.014893
0.0196437
0.0462796
0.000906466
0.023034
0.0379552
0.000706878
0.0267578
0.030447
0.000578823
0.0302991
0.0243042
0.000491502
0.0333394
0.0196851
0.000403432
0.0357221
0.0165557
0.000289152
0.0373961
0.0148115
0.000140065
0.0143625
-3.85954e-05
0.0117628
0.0442714
0.00264864
0.0157496
0.0337828
0.00164451
0.0206966
0.0253684
0.000971096
0.0256851
0.0192186
0.000556908
0.0301844
0.0151252
0.000292641
0.0339508
0.0127772
9.57915e-05
0.0369299
0.01189
-9.08772e-05
0.0122856
-0.000276515
0.00178988
0.0416889
0.00565484
0.00746426
0.0278007
0.0031564
0.0145045
0.0182097
0.00159931
0.0214948
0.0122027
0.000716233
0.0277432
0.00891164
0.000224204
0.0330011
0.00760759
-6.51168e-05
0.0372962
0.00775217
-0.000280864
0.00907871
-0.000470504
-0.0115177
0.0362269
0.0111719
-0.00223012
0.0177956
0.0056536
0.00822451
0.00752441
0.00256576
0.0179412
0.0024634
0.000977385
0.0262482
0.000685322
0.000194537
0.0330405
0.000962751
-0.00018909
0.038584
0.00243328
-0.000422515
0.00480285
-0.000595608
-0.0294332
0.0230765
0.0205608
-0.0131462
1.98831e-05
0.00914117
0.0025107
-0.00858007
0.00363207
0.015699
-0.0107892
0.00114254
0.0261437
-0.00965362
8.57204e-05
0.0343416
-0.00706872
-0.000319029
0.0409137
-0.00388383
-0.000534657
-0.000363691
-0.000648329
-0.0519277
-0.00736462
0.0338845
-0.024205
-0.0298715
0.0122148
-0.00110793
-0.032198
0.00375592
0.0160154
-0.027934
0.000545262
0.0283556
-0.0218196
-0.00049131
0.0373972
-0.0159395
-0.000656876
0.044447
-0.0106789
-0.000697056
-0.00601267
-0.000653937
-0.0781408
-0.0677142
0.0476728
-0.0309905
-0.0783454
0.010284
0.00091465
-0.0638459
0.000226344
0.0209547
-0.0475433
-0.00216874
0.0339534
-0.0344037
-0.0021143
0.0426435
-0.0243801
-0.00150195
0.0492173
-0.0170044
-0.00103134
-0.0114807
-0.000664914
-0.0872229
-0.166495
0.025758
-0.0198091
-0.136961
-0.0155527
0.0158779
-0.0947121
-0.0149143
0.0344652
-0.0637426
-0.0099862
0.0442894
-0.0432074
-0.00580285
0.0503343
-0.0300007
-0.00313359
0.0550211
-0.0214384
-0.00163755
-0.0158452
-0.00073496
1.21684
-0.0105971
0.000321864
1.21938
-0.0105624
0.00117591
1.22208
-0.0116521
0.00269111
1.22425
-0.0139723
0.00552662
1.22424
-0.0178136
0.010702
1.21904
-0.0237427
0.0195788
1.20377
-0.0326974
0.0334094
-0.0463263
0.046684
1.17696
1.2169
-0.0118994
0.000345221
1.21827
-0.0132205
0.00128596
1.2197
-0.0160056
0.00292024
1.22027
-0.0205197
0.00597633
1.21803
-0.0271302
0.0115608
1.20941
-0.0362136
0.0210866
1.18878
-0.0478425
0.0357818
-0.0611039
0.0479482
1.15561
1.21552
-0.0117936
0.000319668
1.21538
-0.0142866
0.00121399
1.21503
-0.0183889
0.00273337
1.21346
-0.0245164
0.00556467
1.20873
-0.0331456
0.0107457
1.19752
-0.0445942
0.0195929
1.17472
-0.0584198
0.0333689
-0.0717953
0.0447372
1.14068
1.2129
0.000243351
-0.0102336
1.21107
0.00095021
-0.013403
1.2086
0.00209036
-0.0180106
1.20443
0.00414742
-0.0245001
1.19683
0.00780297
-0.0333413
1.18319
0.0138456
-0.0448053
1.16015
0.0229551
-0.0583343
0.0291585
1.12957
-0.0703686
0.23627
-0.0153904
0.00060853
0.240557
-0.0153032
0.00240949
0.245624
-0.0168315
0.00573731
0.250621
-0.0200854
0.0122378
0.253187
-0.0254305
0.024689
0.248054
-0.0336202
0.047344
0.225087
-0.0454487
0.0851101
-0.0603339
0.122438
0.178158
0.236412
-0.0173363
0.00070068
0.239023
-0.0193197
0.00269143
0.242302
-0.0234965
0.00630607
0.245093
-0.0302952
0.0133957
0.244462
-0.0403171
0.0270785
0.234054
-0.054127
0.0520009
0.202033
-0.0711595
0.0935135
-0.0854946
0.132303
0.142839
0.234335
-0.0172296
0.000690542
0.234658
-0.0210114
0.00258299
0.235222
-0.0272822
0.00595446
0.234722
-0.0367979
0.0125679
0.230229
-0.0504951
0.025417
0.215778
-0.0690733
0.04899
0.180556
-0.0914066
0.0888375
-0.107676
0.128045
0.11943
0.23031
0.000570549
-0.0149869
0.22799
0.00206235
-0.019804
0.22511
0.00459554
-0.0269069
0.220192
0.00943344
-0.037166
0.210527
0.0186348
-0.0516622
0.191271
0.0352984
-0.0712699
0.154623
0.0633542
-0.0951578
0.0897667
0.10159
-0.11525
0.0677252
-0.0161105
0.000413054
0.0739024
-0.0158487
0.00231636
0.0826376
-0.0172066
0.00617723
0.0941943
-0.0201196
0.0143612
0.107656
-0.024666
0.0313903
0.11805
-0.0310874
0.0658342
0.106
-0.0374453
0.136687
-0.0265212
0.0254944
0.239711
0.0680851
-0.0182623
0.000642975
0.0726009
-0.0204582
0.00278501
0.0797682
-0.0251192
0.00705146
0.089674
-0.0328057
0.016176
0.100914
-0.0443047
0.0354775
0.106749
-0.0602024
0.0752807
0.0813565
-0.0773912
0.158852
-0.0667771
-0.02497
0.278885
0.065779
-0.0182543
0.000768171
0.0677202
-0.0226235
0.00280723
0.0717674
-0.0300334
0.00682136
0.0778159
-0.0417524
0.015466
0.0845102
-0.0596052
0.0340232
0.0854236
-0.0852958
0.07317
0.0546519
-0.116149
0.158367
-0.116792
-0.0533948
0.286106
0.0610766
-0.0159431
0.000756661
0.0597423
-0.0215621
0.00233526
0.0591271
-0.0301623
0.00533966
0.0585013
-0.0434187
0.0117255
0.0561825
-0.0640092
0.0253576
0.0466114
-0.0949985
0.0545721
0.00826039
-0.137235
0.122791
-0.0909762
-0.1676
0.239812
1.16554
-0.0658422
0.028051
1.15276
-0.0788381
0.02765
1.13775
-0.0825571
0.0274877
-0.0786798
0.0170501
1.12888
1.15147
-0.0737655
0.0120653
1.14849
-0.0820246
0.00616473
1.1422
-0.0820301
0.00575634
-0.073773
-0.00220813
1.13951
1.1426
-0.0790295
0.00334491
1.14831
-0.0828821
-0.00485937
1.15076
-0.079159
-0.00531512
-0.0661582
-0.0110552
1.1542
1.13762
-0.0157195
-0.0713676
1.15206
-0.0263925
-0.070929
1.16443
-0.0267358
-0.0647906
-0.0271424
1.17536
-0.0499418
0.163591
-0.0750557
0.0531582
0.143203
-0.0908135
0.0538092
0.118572
-0.0958901
0.0546789
-0.094172
0.0330889
0.101106
0.141504
-0.082132
0.0204769
0.137582
-0.0900916
0.00936518
0.127464
-0.0899991
0.00998272
-0.0818374
-0.00555689
0.118478
0.127789
-0.0944896
0.00734378
0.137435
-0.0958911
-0.00870582
0.140899
-0.0906383
-0.00814074
-0.0748028
-0.0187704
0.14158
0.118412
-0.0307178
-0.096313
0.142487
-0.0527282
-0.0936309
0.162451
-0.0521085
-0.0852294
-0.051248
0.176516
-0.0647628
0.00880947
0.109214
-0.0138436
0.111915
-0.0387426
0.108942
0.0920395
-0.0896507
-0.0105838
0.115305
-0.015671
0.126367
-0.0230855
0.12634
0.115076
-0.0516791
-0.0235297
0.0927836
-0.0157324
0.109864
-0.0102955
0.112762
0.109571
-0.0235604
-0.0390133
0.0101029
-0.0141352
0.0322577
0.00857349
0.0379446
0.02586
0.0410361
1.15884
-0.0715015
-0.0280973
1.18209
-0.0582779
-0.0229039
1.19607
-0.044533
-0.0140367
1.20394
-0.0331274
-0.00797996
1.20829
-0.024519
-0.00427769
1.21089
-0.0183968
-0.00218029
1.21281
-0.0142904
-0.00101473
-0.0117869
-0.000297908
1.17298
-0.0611468
-0.043826
1.19612
-0.0479116
-0.0335139
1.20781
-0.0362879
-0.0199298
1.21289
-0.0271967
-0.0110122
1.21469
-0.0205737
-0.0057462
1.21519
-0.0160451
-0.0028514
1.21544
-0.0132441
-0.00129344
-0.0119074
-0.000382352
1.18689
-0.0466456
-0.0471935
1.20795
-0.0329357
-0.0360309
1.21707
-0.023929
-0.0214881
1.2197
-0.0179518
-0.0118668
1.21937
-0.0140696
-0.00618099
1.2181
-0.0117176
-0.0030511
1.21683
-0.0106034
-0.001372
-0.0106187
-0.000409762
1.20193
-0.0460789
-0.027141
1.21766
-0.0336604
-0.0150026
1.22336
-0.0199581
-0.00967095
1.22372
-0.0109935
-0.00732091
1.22179
-0.00572351
-0.00641678
1.21923
-0.00281788
-0.00633739
1.21679
-0.00125868
-0.00690401
-0.000381882
-0.00815124
0.153098
-0.107036
-0.0871292
0.190168
-0.0909359
-0.0634645
0.209839
-0.0687267
-0.0357505
0.219763
-0.0502454
-0.0189697
0.22485
-0.0366258
-0.00966422
0.227847
-0.0271656
-0.00475164
0.230256
-0.0209323
-0.00217423
-0.0171748
-0.000666045
0.178474
-0.0851813
-0.125677
0.214276
-0.0709093
-0.0893424
0.229284
-0.05395
-0.0497141
0.234135
-0.0401967
-0.025912
0.234869
-0.0302168
-0.0128891
0.23446
-0.0234486
-0.00615984
0.23425
-0.0192942
-0.00272141
-0.0173283
-0.000800152
0.199751
-0.060279
-0.130266
0.232393
-0.0453933
-0.0941891
0.243402
-0.033615
-0.052833
0.244431
-0.0254492
-0.0276424
0.241901
-0.0201104
-0.0137577
0.238795
-0.0168596
-0.0065344
0.236306
-0.0153354
-0.00284142
-0.0154308
-0.000813866
0.222755
-0.120513
-0.0320834
0.246385
-0.0856484
-0.0170359
0.252129
-0.0480908
-0.0112259
0.249964
-0.0252168
-0.00906064
0.245226
-0.0125843
-0.00851174
0.240327
-0.00595835
-0.00882042
0.236156
-0.00255405
-0.0098688
-0.00071392
-0.0118231
0.00720006
-0.116832
-0.233643
0.0460544
-0.11594
-0.123339
0.0558974
-0.0850846
-0.0552211
0.0583393
-0.0594139
-0.0257403
0.0590313
-0.0415988
-0.0119649
0.0596922
-0.0299181
-0.00549514
0.0610666
-0.0225407
-0.00244632
-0.0181967
-0.000852553
0.0536345
-0.0668232
-0.281
0.0848719
-0.0771185
-0.159401
0.0841731
-0.0600133
-0.0740867
0.0775935
-0.0441771
-0.0345692
0.0716213
-0.0327176
-0.0157981
0.0676321
-0.025062
-0.00702663
0.0657414
-0.0204263
-0.00294513
-0.0182523
-0.000878612
0.080265
-0.0264451
-0.27447
0.106129
-0.0370782
-0.160093
0.100518
-0.0309224
-0.0763137
0.089404
-0.0246108
-0.0360943
0.0795853
-0.0201067
-0.0165498
0.0724844
-0.0172152
-0.00728032
0.068024
-0.0158724
-0.00293498
-0.0161492
-0.000757643
0.104465
0.0097325
-0.235295
0.117199
0.00213358
-0.137594
0.10716
-0.00223845
-0.066736
0.0938793
-0.00459095
-0.0319561
0.0824314
-0.00652794
-0.0147152
0.0737701
-0.00811364
-0.00639857
0.0676487
-0.00984374
-0.00246137
-0.012269
-0.000519343
1.20957
-0.00743726
0.000145231
1.20622
-0.0106315
0.000579776
1.20175
-0.0147084
0.00117014
1.19505
-0.0198435
0.00204026
1.18456
-0.0259993
0.00314741
1.16848
-0.0326178
0.00389502
1.14583
-0.037987
0.00229552
-0.0379084
-0.00973937
1.12311
1.20626
-0.00392884
8.702e-05
1.20202
-0.00669681
0.00030417
1.19651
-0.00971903
0.000520825
1.18888
-0.0129288
0.000714277
1.17817
-0.0159535
0.000665466
1.1638
-0.0178839
-0.000361762
1.14676
-0.0169973
-0.00395367
-0.0103591
-0.014618
1.13383
1.20345
-0.000269905
7.40903e-05
1.199
-0.00240419
0.000154879
1.19339
-0.00429444
0.000183996
1.18611
-0.00575907
0.000107262
1.17678
-0.00634015
-0.000283027
1.16561
-0.00521946
-0.00148708
1.15432
-0.00127616
-0.00443579
0.00714598
-0.0111295
1.14794
1.2013
0.00311036
8.03724e-05
1.19716
0.00165023
8.95506e-05
1.19206
0.000756463
4.31513e-05
1.1858
0.00061146
-0.00011119
1.17835
0.00162812
-0.000509288
1.17023
0.0043477
-0.00144929
1.16292
0.00943752
-0.00340575
0.0174341
-0.00721593
1.15985
1.19986
0.00593349
8.42165e-05
1.19634
0.00510687
6.40075e-05
1.19208
0.00501995
-3.57853e-07
1.187
0.00582373
-0.000137984
1.1813
0.00777743
-0.000444499
1.17552
0.0111913
-0.00107108
1.17088
0.0163322
-0.00224781
0.0231736
-0.00427729
1.16941
1.19905
0.00806518
7.3797e-05
1.1963
0.0078165
4.11976e-05
1.19296
0.00837825
-1.91625e-05
1.18907
0.00984252
-0.00012178
1.18482
0.0123395
-0.000317054
1.18071
0.0159837
-0.000681217
1.17758
0.0207754
-0.00131789
0.0264328
-0.00232304
1.17665
1.19882
0.0094425
5.13615e-05
1.19689
0.00973469
1.08843e-05
1.19447
0.0108386
-3.53259e-05
1.19161
0.0128044
-9.88562e-05
1.18848
0.0156633
-0.000201669
1.18546
0.0193913
-0.000379332
1.18308
0.0238281
-0.000676019
0.028578
-0.00112171
1.18206
1.19912
-2.84982e-06
1.19801
-2.49035e-05
1.19645
-5.3631e-05
1.19446
-7.90723e-05
1.19218
-0.000104289
1.1898
-0.000143209
1.18767
-0.000214066
-0.000331552
1.18619
0.225178
-0.0109116
0.00039655
0.220387
-0.0157394
0.0013063
0.214021
-0.0219837
0.00261306
0.204258
-0.0300244
0.00466214
0.188211
-0.0399383
0.00746992
0.161808
-0.0510052
0.0100337
0.1221
-0.060319
0.00716422
-0.0589231
-0.0249701
0.0810038
0.220143
-0.00578809
0.000289269
0.213919
-0.00994454
0.000732967
0.20579
-0.0145325
0.00119905
0.19433
-0.0194924
0.00164219
0.177672
-0.0243005
0.00168584
0.154293
-0.0274849
-0.000503637
0.124973
-0.0260707
-0.00888219
-0.0138443
-0.0357017
0.100978
0.215901
-0.000445753
0.000260704
0.209332
-0.00363399
0.000413169
0.201007
-0.00648263
0.000459592
0.190059
-0.00873002
0.000292316
0.175694
-0.00967283
-0.00054569
0.157932
-0.00795335
-0.0032559
0.139113
-0.00160158
-0.0100863
0.0130322
-0.0260591
0.127166
0.2127
0.00448396
0.000266172
0.206578
0.00231249
0.000264985
0.199023
0.000972807
0.000143086
0.18965
0.00072962
-0.000198218
0.178301
0.00225178
-0.0010843
0.165671
0.00642439
-0.00319765
0.153925
0.0144361
-0.00769721
0.0275427
-0.0166719
0.14887
0.210561
0.00859776
0.000260844
0.205369
0.0073752
0.000193212
0.199061
0.00723999
4.04379e-05
0.191503
0.00842365
-0.000273968
0.182923
0.0113404
-0.000953749
0.17411
0.0165091
-0.00234264
0.166839
0.0244323
-0.0049725
0.0352664
-0.00952966
0.164367
0.209371
0.0117044
0.000218078
0.20532
0.0113422
0.000125375
0.200392
0.0121679
-1.97914e-05
0.19462
0.0143283
-0.000254476
0.188296
0.0180355
-0.000687832
0.182118
0.0234917
-0.00148572
0.177357
0.03075
-0.00287431
0.0394638
-0.00505325
0.17589
0.209035
0.0137317
0.000134246
0.206197
0.0141532
3.79665e-05
0.202628
0.015782
-7.97818e-05
0.198405
0.0186811
-0.000229241
0.193787
0.022912
-0.000460102
0.18929
0.0284564
-0.000846794
0.185743
0.0351021
-0.00148084
0.0422869
-0.00241905
0.184217
0.209475
1.23226e-05
0.207849
-6.93366e-05
0.205547
-0.000148806
0.202632
-0.000215286
0.19927
-0.000279626
0.195773
-0.000368702
0.192625
-0.000517037
-0.000751175
0.19044
0.0550029
-0.0116059
0.000659766
0.0503405
-0.0171535
0.00156014
0.0443247
-0.024572
0.00303852
0.0345554
-0.0346653
0.005678
0.0161122
-0.0479217
0.0098257
-0.0191681
-0.0644254
0.0147408
-0.0857118
-0.0794417
0.0159145
-0.0701065
-0.186076
-0.0220997
0.0491719
-0.00614634
0.000610407
0.0425979
-0.0108289
0.000982309
0.0338983
-0.0161222
0.00144881
0.0208807
-0.0220554
0.0020499
0.000811688
-0.0282504
0.00208344
-0.0311315
-0.0326409
-0.000344858
-0.0784319
-0.0305488
-0.0104746
-0.00832242
-0.127645
-0.0482727
0.0443833
-0.000488167
0.000618306
0.0373135
-0.00401546
0.000669651
0.0282369
-0.00721702
0.000631015
0.0158391
-0.00982718
0.00046195
-0.00137035
-0.010994
-0.000592654
-0.0245963
-0.0088183
-0.00385257
-0.0525331
-0.00025636
-0.0124419
0.0228235
-0.0752238
-0.0345143
0.0408434
0.00469813
0.00062822
0.0342397
0.00233005
0.000523181
0.0259978
0.000856265
0.000311724
0.0154912
0.000575548
-9.43438e-05
0.00222166
0.00235341
-0.00116216
-0.0135365
0.00742865
-0.00368645
-0.0299405
0.0177363
-0.00928587
0.0362603
-0.0391029
-0.0209463
0.0385162
0.00899936
0.000587683
0.0329378
0.00767943
0.000422215
0.0261005
0.00754032
0.000193634
0.0177386
0.00885329
-0.000189795
0.00795846
0.0121599
-0.000980062
-0.00256056
0.0181967
-0.00259164
-0.0118977
0.027838
-0.00573701
0.0418082
-0.0155917
-0.0113837
0.0372357
0.0122345
0.000471436
0.0329047
0.0118484
0.000287384
0.0276061
0.012746
7.30914e-05
0.0213117
0.0151069
-0.000213575
0.0142755
0.0192193
-0.000711106
0.0071981
0.0253973
-0.00160896
0.00151018
0.0338512
-0.00319957
0.0443919
-0.000363244
-0.00576347
0.0368794
0.0143416
0.000282376
0.0338654
0.0148002
0.000100262
0.0300612
0.0165559
-8.55302e-05
0.0255234
0.0196988
-0.000283344
0.0205006
0.0243341
-0.000552013
0.0155313
0.0304961
-0.000976308
0.0115451
0.038026
-0.00166951
0.046372
0.00985366
-0.00270771
0.0373549
3.9944e-05
0.0356478
-0.000132267
0.0332299
-0.000282612
0.0301549
-0.000400463
0.0265838
-0.000494436
0.022842
-0.000591379
0.0194552
-0.000734034
0.0171283
-0.000954251
1.13578
-0.0261287
-0.0579029
1.15805
-0.0176161
-0.0755816
1.1807
-0.0111442
-0.0763044
-0.00490439
-0.0646033
1.20027
1.14507
0.00350985
-0.0408703
1.1655
0.0147343
-0.052787
1.18743
0.0208193
-0.0538873
0.0230749
-0.0463554
1.2058
1.15576
0.0198061
-0.0241163
1.17172
0.0297823
-0.0309993
1.18947
0.0349215
-0.0318596
0.035421
-0.0276002
1.20473
1.16559
0.0275242
-0.0134607
1.17697
0.0354335
-0.0170314
1.19008
0.0393644
-0.01755
0.0391531
-0.0153102
1.20166
1.17326
0.0307789
-0.00710332
1.18092
0.0366499
-0.00887148
1.19001
0.039424
-0.00915544
0.0388671
-0.00804343
1.19834
1.1789
0.0321093
-0.00358466
1.18366
0.0362971
-0.00440867
1.18958
0.0380463
-0.00454261
0.0371682
-0.00400907
1.19529
1.18291
0.0329074
-0.00164882
1.18538
0.0358213
-0.00199803
1.18881
0.0366673
-0.00205038
0.0353437
-0.00181079
1.19245
1.18569
-0.000477721
1.18621
-0.000577992
1.18759
-0.000594882
-0.000528913
1.18955
0.106462
-0.0239502
-0.155724
0.148825
-0.00994899
-0.201627
0.191055
-0.00164703
-0.202117
0.0060248
-0.170108
0.225773
0.12271
0.017755
-0.104307
0.15911
0.0371917
-0.136328
0.196922
0.0462333
-0.139579
0.047409
-0.119008
0.22819
0.141672
0.0371748
-0.0580422
0.168558
0.0543803
-0.0750738
0.19794
0.0622152
-0.0772231
0.0614424
-0.0663903
0.222697
0.158197
0.0452131
-0.030826
0.176608
0.0582595
-0.039321
0.197579
0.0642366
-0.040542
0.0630695
-0.0351242
0.215765
0.170556
0.0477134
-0.0157926
0.182614
0.0570961
-0.0197655
0.196781
0.0612972
-0.0203838
0.0600322
-0.0177804
0.209555
0.179415
0.0483729
-0.0077693
0.186756
0.054884
-0.00953743
0.195799
0.0575116
-0.00980022
0.0559947
-0.00858769
0.204415
0.185551
0.0489042
-0.00351434
0.189322
0.0533449
-0.00422997
0.194499
0.0545968
-0.00431214
0.0525183
-0.00376655
0.199931
0.189733
-0.00103378
0.190547
-0.00121695
0.192613
-0.00122215
-0.00105332
0.195523
-0.101887
0.0480031
-0.277812
-0.0218814
0.0882128