/*--------------------------------*- C++ -*----------------------------------*\
  =========                 |
  \\      /  F ield         | OpenFOAM: The Open Source CFD Toolbox
   \\    /   O peration     | Website:  https://openfoam.org
    \\  /    A nd           | Version:  7
     \\/     M anipulation  |
\*---------------------------------------------------------------------------*/
FoamFile
{
    version     2.0;
    format      ascii;
    class       volVectorField;
    location    "0.75";
    object      U;
}
// * * * * * * * * * * * * * * * * * * * * * * * * * * * * * * * * * * * * * //

dimensions      [0 1 -1 0 0 0 0];

internalField   nonuniform List<vector> 
7936
(
(0.191985 0.00162211 -6.07718e-06)
(0.191973 0.00178753 -6.34178e-06)
(0.191887 0.00208035 -4.43803e-06)
(0.191729 0.00249974 -2.27602e-06)
(0.191498 0.00303785 2.46838e-06)
(0.191202 0.00367197 1.0256e-05)
(0.190859 0.00435545 2.03761e-05)
(0.190496 0.00500999 3.12776e-05)
(0.192126 0.00154212 -7.12595e-06)
(0.192239 0.00178319 -5.58911e-06)
(0.192281 0.00215108 -2.23522e-06)
(0.19224 0.00264087 5.30027e-06)
(0.19211 0.0032438 1.93706e-05)
(0.191876 0.00393252 4.15127e-05)
(0.191527 0.0046526 7.1823e-05)
(0.191062 0.00531475 0.000107768)
(0.192346 0.00134123 -6.02081e-06)
(0.192582 0.00165808 -3.39808e-06)
(0.192745 0.00209417 4.59722e-06)
(0.192823 0.00265242 2.11815e-05)
(0.192791 0.00332653 5.02278e-05)
(0.192614 0.0040901 9.53855e-05)
(0.192245 0.0048844 0.000158512)
(0.191646 0.00560675 0.000235943)
(0.192642 0.00102425 -4.32985e-06)
(0.192993 0.00140478 2.63236e-06)
(0.193275 0.00189654 1.90453e-05)
(0.193474 0.00250975 5.03256e-05)
(0.19355 0.00324593 0.0001039)
(0.193439 0.00408489 0.000187918)
(0.193051 0.00496786 0.000308177)
(0.192295 0.00577845 0.000461085)
(0.193005 0.000596025 3.70737e-08)
(0.193455 0.00102148 1.43098e-05)
(0.193851 0.00154012 4.35839e-05)
(0.194174 0.00217239 9.77089e-05)
(0.19437 0.00293079 0.000190444)
(0.194342 0.00380453 0.000338318)
(0.193949 0.00473826 0.000555937)
(0.193024 0.00560309 0.000844031)
(0.193418 7.76319e-05 6.89573e-06)
(0.193938 0.000513294 3.1795e-05)
(0.194428 0.00100833 7.95419e-05)
(0.194868 0.00159255 0.000166961)
(0.195188 0.00228719 0.000318202)
(0.195256 0.00308794 0.000564368)
(0.194866 0.00394058 0.000936908)
(0.193754 0.00469949 0.00144878)
(0.193845 -0.000491933 1.49591e-05)
(0.194387 -9.8697e-05 5.38733e-05)
(0.194933 0.000300436 0.000125445)
(0.195457 0.000736358 0.000256799)
(0.195873 0.00122605 0.000487121)
(0.196009 0.00175496 0.000870067)
(0.195582 0.0022489 0.00146611)
(0.194216 0.00251251 0.00231648)
(0.194234 -0.00105134 2.2263e-05)
(0.194731 -0.000767202 7.71925e-05)
(0.195266 -0.000549965 0.000175327)
(0.195798 -0.000381932 0.000354657)
(0.196215 -0.000273218 0.000673867)
(0.196292 -0.000292016 0.00121019)
(0.195639 -0.000627481 0.00205739)
(0.193728 -0.00175259 0.0032765)
(0.0337049 0.00236256 -1.29492e-05)
(0.033686 0.00260799 -1.83245e-05)
(0.0335624 0.00304103 -1.81498e-05)
(0.0333298 0.00366142 -1.24512e-05)
(0.0329921 0.00445896 2.35301e-06)
(0.0325597 0.00540176 2.66683e-05)
(0.0320555 0.00642207 5.95232e-05)
(0.0315215 0.00740428 9.58372e-05)
(0.0339157 0.00224704 -2.18931e-05)
(0.0340835 0.00260826 -2.15566e-05)
(0.0341441 0.00315299 -1.27342e-05)
(0.0340886 0.00388152 1.07757e-05)
(0.033903 0.00478165 5.57192e-05)
(0.0335665 0.00581502 0.000127894)
(0.0330595 0.00690302 0.000227451)
(0.0323761 0.00791294 0.000346207)
(0.0342429 0.00196095 -2.45257e-05)
(0.0345923 0.00243163 -1.68714e-05)
(0.0348363 0.0030824 8.11493e-06)
(0.0349597 0.00391985 6.11408e-05)
(0.0349278 0.00493814 0.000156506)
(0.0346847 0.00610293 0.00030609)
(0.034159 0.00733146 0.000516643)
(0.0332829 0.00847145 0.000776166)
(0.0346838 0.00150242 -2.07439e-05)
(0.0352055 0.00207114 1.54777e-06)
(0.0356333 0.00281053 5.37565e-05)
(0.0359465 0.00374086 0.000156522)
(0.0360897 0.00487208 0.000335116)
(0.0359658 0.0061841 0.000618202)
(0.0354374 0.0075995 0.00102688)
(0.0343454 0.0089495 0.00155162)
(0.0352274 0.000882978 -7.66124e-06)
(0.0359012 0.00152201 3.78248e-05)
(0.0365077 0.00230898 0.000133551)
(0.0370244 0.00328368 0.000313938)
(0.0373767 0.00447825 0.000627768)
(0.0374217 0.00589538 0.00113496)
(0.0369395 0.00747373 0.00189179)
(0.0356381 0.00903744 0.00291237)
(0.0358471 0.000130696 1.38482e-05)
(0.0366327 0.000788901 9.43443e-05)
(0.0373974 0.0015499 0.000252384)
(0.0381202 0.00247254 0.000547094)
(0.0387096 0.00360984 0.00106646)
(0.0389754 0.00498748 0.001928)
(0.0386013 0.0065666 0.0032593)
(0.0371164 0.00818086 0.0051456)
(0.0364921 -0.000698997 4.03414e-05)
(0.0373219 -0.000100194 0.000167284)
(0.0381944 0.00052607 0.000406161)
(0.0390902 0.00124388 0.000853687)
(0.0399022 0.00210931 0.00165734)
(0.0403951 0.00314389 0.00302764)
(0.0401515 0.00430861 0.00521683)
(0.0384732 0.00544027 0.00849726)
(0.0370815 -0.00151769 6.59927e-05)
(0.0378593 -0.00108016 0.000245677)
(0.0387448 -0.000723072 0.000575407)
(0.0397098 -0.00040126 0.00119577)
(0.0406197 -9.99424e-05 0.00233278)
(0.0411815 0.000112527 0.00430685)
(0.0408548 6.24996e-07 0.0075332)
(0.0386067 -0.00117379 0.012451)
(0.00617852 0.00247034 -2.57972e-05)
(0.00616462 0.00273433 -4.10571e-05)
(0.00604074 0.00320163 -4.98044e-05)
(0.00580574 0.00387502 -4.67625e-05)
(0.00546146 0.00474893 -2.81655e-05)
(0.00501719 0.00579599 7.05698e-06)
(0.00449395 0.00694755 5.72126e-05)
(0.00393079 0.00807866 0.000115706)
(0.00640538 0.00235603 -4.93384e-05)
(0.00659244 0.00274502 -5.91362e-05)
(0.0066714 0.00333616 -5.42726e-05)
(0.00663586 0.0041346 -2.52368e-05)
(0.00647119 0.0051359 3.78254e-05)
(0.00615168 0.00630734 0.000142788)
(0.00564725 0.00757095 0.000293622)
(0.00493555 0.00878236 0.000479396)
(0.00675906 0.00206316 -6.50579e-05)
(0.00714495 0.00257475 -6.30533e-05)
(0.00743059 0.00328914 -3.42213e-05)
(0.00760594 0.00422424 3.8473e-05)
(0.00763501 0.00538667 0.000175318)
(0.00745357 0.00675568 0.000399752)
(0.00697097 0.00825868 0.000726777)
(0.00607639 0.00973518 0.00114173)
(0.00723889 0.00159231 -6.71311e-05)
(0.00781865 0.00221661 -4.3972e-05)
(0.00832128 0.0030429 2.49651e-05)
(0.00873412 0.00410908 0.000170764)
(0.00900392 0.0054492 0.000437087)
(0.0090258 0.007076 0.000876344)
(0.00862997 0.00894372 0.00153168)
(0.00756903 0.0108971 0.00240375)
(0.00783605 0.000952604 -5.24028e-05)
(0.00859582 0.00166434 4.85995e-06)
(0.00932365 0.00256486 0.000137623)
(0.0100134 0.00372221 0.000403348)
(0.0106039 0.00521481 0.00088803)
(0.0109513 0.00710983 0.00170222)
(0.0107963 0.009424 0.00296616)
(0.00968554 0.0120592 0.00475667)
(0.00852671 0.000170451 -2.15926e-05)
(0.00943131 0.000918039 8.66622e-05)
(0.01038 0.00181645 0.000314531)
(0.0113857 0.00297135 0.000763451)
(0.0123942 0.00451013 0.00159231)
(0.0132381 0.00657353 0.00303074)
(0.013578 0.00928584 0.0053695)
(0.0127118 0.0127636 0.00892061)
(0.00925862 -0.000698888 2.06039e-05)
(0.0102424 -2.33686e-06 0.000197578)
(0.011378 0.000773723 0.000552867)
(0.0127089 0.00175561 0.00125558)
(0.0142081 0.0031052 0.002585)
(0.0157212 0.00501323 0.00498516)
(0.0169331 0.0077555 0.00906837)
(0.0170176 0.0119221 0.0157945)
(0.00994259 -0.00156508 6.47034e-05)
(0.0109045 -0.00103842 0.000322268)
(0.0121391 -0.00054779 0.000825621)
(0.0137186 1.91661e-05 0.00183133)
(0.0156479 0.000792754 0.00379725)
(0.0178358 0.00189444 0.00749029)
(0.0201523 0.00354319 0.0140955)
(0.021437 0.00563239 0.0254457)
(0.190156 0.00552634 4.04877e-05)
(0.189886 0.00578727 4.52322e-05)
(0.189733 0.0057232 4.37031e-05)
(0.189733 0.00534172 3.57609e-05)
(0.190506 0.00579695 0.00014175)
(0.189929 0.00597173 0.000160807)
(0.189444 0.0057704 0.000157221)
(0.18917 0.00521574 0.000130278)
(0.19082 0.00610805 0.000311713)
(0.189867 0.00622355 0.000354078)
(0.188985 0.00586901 0.00034532)
(0.1884 0.00507892 0.000282705)
(0.191134 0.00632982 0.000617152)
(0.189703 0.00639704 0.000703947)
(0.188312 0.00586686 0.000685792)
(0.187343 0.00477421 0.000553815)
(0.191459 0.00617265 0.00115304)
(0.189428 0.00617042 0.00132248)
(0.187385 0.00544731 0.00129064)
(0.185921 0.00401158 0.00102987)
(0.191736 0.00510171 0.00202145)
(0.189018 0.00494646 0.00232746)
(0.186195 0.00405731 0.00227555)
(0.184114 0.00236389 0.00179173)
(0.19175 0.002218 0.00328901)
(0.188445 0.0015799 0.00379608)
(0.184877 0.000518622 0.00372515)
(0.182029 -0.00117258 0.00292176)
(0.190809 -0.00423845 0.00455691)
(0.187383 -0.00607063 0.00537584)
(0.183572 -0.00717147 0.00534536)
(0.180281 -0.00795566 0.00415003)
(0.0310181 0.00818302 0.000127466)
(0.0306171 0.00857505 0.000144876)
(0.0303883 0.00847351 0.00014196)
(0.0303872 0.00789074 0.000118406)
(0.0315472 0.00865669 0.000459342)
(0.0306791 0.00892782 0.000523016)
(0.0299444 0.00861756 0.000512269)
(0.0295269 0.00776062 0.000425731)
(0.0320429 0.00928743 0.00103161)
(0.0305891 0.00949247 0.00117378)
(0.0292318 0.00894683 0.00114337)
(0.0283284 0.00770052 0.000934729)
(0.0325855 0.00993254 0.00209373)
(0.0303579 0.0101116 0.00239265)
(0.0281714 0.0092944 0.00232393)
(0.0266288 0.00752187 0.00186633)
(0.0332345 0.0102146 0.00403554)
(0.029986 0.0103673 0.00463999)
(0.0266782 0.0092483 0.00450769)
(0.0242305 0.00683173 0.0035581)
(0.0339568 0.00939635 0.00738292)
(0.0294525 0.00944288 0.00853987)
(0.0247127 0.00805895 0.00830981)
(0.0210079 0.0050601 0.00645865)
(0.0345037 0.00601993 0.0127671)
(0.0287448 0.00567873 0.0148606)
(0.0225007 0.00410996 0.0145275)
(0.0170235 0.000834803 0.0112028)
(0.0338841 -0.00497195 0.0184805)
(0.027644 -0.00737768 0.0217933)
(0.0205029 -0.00890343 0.0217113)
(0.0132306 -0.0105183 0.0169224)
(0.00338851 0.00899586 0.000170575)
(0.00294397 0.00946524 0.000205433)
(0.00267718 0.0093519 0.000209835)
(0.00265639 0.00866864 0.000182693)
(0.00402556 0.00971375 0.000663335)
(0.00302956 0.0100803 0.000770337)
(0.00215865 0.00973246 0.000762968)
(0.0016419 0.00870474 0.00063811)
(0.00469005 0.0108877 0.00156281)
(0.00296682 0.0112622 0.0018017)
(0.00130579 0.0106434 0.00176443)
(0.000166085 0.00907406 0.00144087)
(0.0055583 0.0125485 0.00334159)
(0.00279269 0.0130602 0.00386234)
(-2.09725e-05 0.0121202 0.00376428)
(-0.00207845 0.00972541 0.0030105)
(0.00685835 0.0145857 0.00684599)
(0.00255236 0.0153844 0.00796814)
(-0.00200451 0.014078 0.00776458)
(-0.00556803 0.0104999 0.00609259)
(0.00884974 0.0168301 0.0135634)
(0.00231029 0.0181539 0.0159161)
(-0.00479639 0.0165353 0.0155597)
(-0.0109169 0.0114351 0.012046)
(0.0118814 0.0178444 0.026183)
(0.00229157 0.01997 0.0309055)
(-0.00812078 0.018463 0.0304589)
(-0.0185712 0.0119869 0.0236601)
(0.0145009 0.00450091 0.0420378)
(0.00287105 0.00399675 0.049237)
(-0.00982256 0.00284696 0.0492424)
(-0.0260838 -0.00129628 0.0393518)
(0.189898 0.00472969 2.42914e-05)
(0.190197 0.0040227 1.51468e-05)
(0.190565 0.00333215 9.74174e-06)
(0.190943 0.0027271 6.94743e-06)
(0.191287 0.00224241 5.22259e-06)
(0.191571 0.00189042 3.55185e-06)
(0.191784 0.00167176 1.43821e-06)
(0.191921 0.00158321 -2.41274e-06)
(0.189186 0.00443101 8.89906e-05)
(0.189471 0.00360775 5.37937e-05)
(0.189916 0.00287166 3.01737e-05)
(0.190415 0.00227946 1.59981e-05)
(0.190898 0.00184638 7.81495e-06)
(0.191321 0.00156716 2.83395e-06)
(0.191669 0.00142968 -7.24146e-07)
(0.191937 0.00142245 -3.77282e-06)
(0.188295 0.00403235 0.000184791)
(0.18864 0.00303616 0.000105917)
(0.189238 0.00223581 5.53404e-05)
(0.189919 0.0016611 2.60819e-05)
(0.190575 0.00129467 1.03001e-05)
(0.191154 0.00110468 2.02266e-06)
(0.191639 0.00106075 -2.6655e-06)
(0.192034 0.0011429 -5.31711e-06)
(0.18715 0.00336898 0.000337197)
(0.187678 0.00217128 0.000179789)
(0.188542 0.00133215 8.69774e-05)
(0.189475 0.000820228 3.67417e-05)
(0.190342 0.000565172 1.18892e-05)
(0.191088 0.000496862 6.74528e-07)
(0.191707 0.000566469 -4.34452e-06)
(0.192218 0.000745717 -5.98172e-06)
(0.185702 0.00218294 0.000562555)
(0.186608 0.000831005 0.000270519)
(0.187889 4.62235e-05 0.000117357)
(0.189152 -0.000301821 4.20767e-05)
(0.190252 -0.000363431 9.64985e-06)
(0.191155 -0.000253742 -2.91858e-06)
(0.191888 -4.01414e-05 -6.75476e-06)
(0.192492 0.00024543 -5.70113e-06)
(0.183988 8.8472e-05 0.000852589)
(0.185548 -0.00123691 0.000352865)
(0.187411 -0.00172881 0.000121821)
(0.189065 -0.00172347 2.41641e-05)
(0.190389 -0.00146715 -8.26529e-06)
(0.191411 -0.00110848 -1.5135e-05)
(0.192206 -0.000720491 -1.27779e-05)
(0.192854 -0.000326668 -5.77791e-06)
(0.182146 -0.00351483 0.00111001)
(0.184804 -0.0042452 0.000327127)
(0.187404 -0.00398894 3.90979e-05)
(0.189412 -0.00335183 -5.02524e-05)
(0.190865 -0.00263475 -5.7707e-05)
(0.191901 -0.00197004 -4.35718e-05)
(0.192669 -0.00139828 -2.60556e-05)
(0.19329 -0.00091409 -8.09502e-06)
(0.181059 -0.00886203 0.000857377)
(0.185115 -0.00789707 -8.64718e-05)
(0.188306 -0.00634286 -0.000272793)
(0.190415 -0.00485553 -0.000242733)
(0.191767 -0.00362401 -0.000165218)
(0.192645 -0.00267028 -9.78699e-05)
(0.193261 -0.00195765 -5.01145e-05)
(0.19376 -0.0014344 -1.43535e-05)
(0.0306336 0.00696165 8.35152e-05)
(0.0310791 0.0058999 5.50745e-05)
(0.0316255 0.00487198 3.7594e-05)
(0.0321824 0.00397735 2.77479e-05)
(0.0326868 0.00326458 2.12032e-05)
(0.0331024 0.00274929 1.47515e-05)
(0.0334134 0.00243068 6.87413e-06)
(0.0336156 0.00230325 -3.57067e-06)
(0.0295558 0.0065499 0.000293408)
(0.0299915 0.00530035 0.000179547)
(0.0306606 0.0041982 0.00010226)
(0.0314045 0.00332022 5.51521e-05)
(0.0321171 0.00268323 2.7401e-05)
(0.0327396 0.00227562 1.00406e-05)
(0.0332481 0.00207701 -2.74072e-06)
(0.0336392 0.00207062 -1.32516e-05)
(0.0281794 0.0060333 0.000612763)
(0.028731 0.00448952 0.000351922)
(0.0296473 0.0032753 0.000183926)
(0.0306684 0.00241636 8.65076e-05)
(0.0316426 0.00187572 3.35365e-05)
(0.0324964 0.00159948 5.34628e-06)
(0.0332086 0.00153897 -1.12564e-05)
(0.0337859 0.00166393 -2.1234e-05)
(0.0263545 0.00516517 0.00113823)
(0.0272387 0.00325374 0.000602976)
(0.0285899 0.00195696 0.000288759)
(0.0300059 0.00118309 0.000120283)
(0.0313005 0.000806373 3.71702e-05)
(0.0324029 0.000710361 -6.53674e-07)
(0.0333126 0.000818056 -1.85697e-05)
(0.0340614 0.00108692 -2.53026e-05)
(0.02393 0.00354399 0.00194741)
(0.0255312 0.00129891 0.00092047)
(0.0275797 5.56797e-05 0.000389967)
(0.0295186 -0.000477251 0.000135485)
(0.0311699 -0.000562574 2.74392e-05)
(0.032508 -0.000391325 -1.41e-05)
(0.0335851 -6.84022e-05 -2.78557e-05)
(0.0344703 0.000359121 -2.58655e-05)
(0.0208753 0.000532079 0.00299075)
(0.0237708 -0.00181092 0.00119622)
(0.0268186 -0.00262314 0.000395816)
(0.0293878 -0.00261074 6.86988e-05)
(0.0313857 -0.0022047 -3.50287e-05)
(0.0328965 -0.00165292 -5.54841e-05)
(0.0340627 -0.0010657 -4.8196e-05)
(0.0350128 -0.000475166 -2.67372e-05)
(0.0172997 -0.00502542 0.00401684)
(0.022458 -0.00656615 0.00108065)
(0.0267958 -0.00616048 8.14894e-05)
(0.029937 -0.00511388 -0.000198219)
(0.0321257 -0.00396915 -0.000204069)
(0.0336455 -0.00293516 -0.00015052)
(0.0347621 -0.00206332 -9.14137e-05)
(0.0356667 -0.00133399 -3.36331e-05)
(0.014632 -0.0146191 0.0031256)
(0.0229983 -0.0129331 -0.000547992)
(0.0283382 -0.0100946 -0.00109092)
(0.0315835 -0.00752124 -0.000881175)
(0.0335609 -0.00549546 -0.000572215)
(0.0347997 -0.00398607 -0.000329978)
(0.0356627 -0.00288888 -0.000167982)
(0.0363768 -0.00209628 -5.17314e-05)
(0.00291367 0.00758176 0.000137019)
(0.00339433 0.00636455 9.8694e-05)
(0.00398182 0.00520966 7.44464e-05)
(0.00457534 0.004221 5.95114e-05)
(0.00510866 0.00344277 4.74071e-05)
(0.00554535 0.00288532 3.364e-05)
(0.00587056 0.00254279 1.63363e-05)
(0.00608137 0.0024064 -4.03719e-06)
(0.00165694 0.00723854 0.000441647)
(0.00215321 0.00576854 0.000272582)
(0.00290234 0.0045089 0.000158037)
(0.00371855 0.00352763 8.77619e-05)
(0.00448854 0.00282744 4.48269e-05)
(0.00515373 0.00238501 1.57936e-05)
(0.00569346 0.00217101 -8.50079e-06)
(0.00610825 0.00216471 -3.05053e-05)
(-2.0072e-05 0.00691467 0.000935481)
(0.00066613 0.00500287 0.000530549)
(0.00174167 0.00356505 0.000273597)
(0.00289424 0.00258066 0.00012619)
(0.00396621 0.00197597 4.52299e-05)
(0.00488906 0.00167282 7.8109e-07)
(0.00565044 0.00160667 -2.95063e-05)
(0.00626662 0.00174143 -5.16082e-05)
(-0.00240869 0.00635261 0.00180083)
(-0.00119363 0.00380573 0.000931005)
(0.000481296 0.00219122 0.000433907)
(0.00212989 0.00127156 0.000173863)
(0.00358084 0.000839836 4.60436e-05)
(0.00478448 0.000731539 -1.3493e-05)
(0.00576215 0.000847922 -4.61563e-05)
(0.00656489 0.00113975 -6.42641e-05)
(-0.00591574 0.00503633 0.00322501)
(-0.00348524 0.00176846 0.00146672)
(-0.000789491 0.000121737 0.000597835)
(0.00154355 -0.000544784 0.000197403)
(0.00342627 -0.000645139 2.84547e-05)
(0.0048971 -0.00045083 -3.55008e-05)
(0.00605863 -9.2789e-05 -6.25426e-05)
(0.00701106 0.000376671 -6.88864e-05)
(-0.0109805 0.00218798 0.00519351)
(-0.00604968 -0.0017816 0.0019281)
(-0.0018177 -0.00298419 0.000602719)
(0.00136548 -0.00298335 9.13258e-05)
(0.00367492 -0.00247971 -6.97285e-05)
(0.00533666 -0.00183185 -9.62501e-05)
(0.00658954 -0.00116357 -9.19481e-05)
(0.00761028 -0.000504332 -7.03668e-05)
(-0.0180129 -0.00428246 0.00722284)
(-0.00829263 -0.00801975 0.00161866)
(-0.00191311 -0.00751953 2.52402e-05)
(0.00206046 -0.00603882 -0.000355107)
(0.00457887 -0.00454226 -0.000338728)
(0.00621296 -0.0032718 -0.000240634)
(0.00738591 -0.00224888 -0.000153392)
(0.00834506 -0.00141801 -7.72097e-05)
(-0.0243427 -0.0211068 0.00425719)
(-0.00736718 -0.0185393 -0.00221417)
(0.00052747 -0.0133757 -0.00227795)
(0.00439666 -0.00928104 -0.00156676)
(0.00644775 -0.00642461 -0.000936109)
(0.00762997 -0.00447898 -0.000514658)
(0.00844299 -0.00315347 -0.000262421)
(0.00916019 -0.00223226 -9.74041e-05)
(0.194513 -0.00152297 2.67637e-05)
(0.194889 -0.00141275 9.5699e-05)
(0.19532 -0.00144799 0.000215329)
(0.195738 -0.00163341 0.000433833)
(0.195969 -0.00200767 0.000820501)
(0.195658 -0.00267301 0.00145156)
(0.194093 -0.00384977 0.00235986)
(0.190456 -0.00602386 0.00316332)
(0.194616 -0.0018337 2.78707e-05)
(0.194807 -0.00193752 0.000103637)
(0.195046 -0.00225265 0.000232101)
(0.19524 -0.00280877 0.00046586)
(0.195176 -0.00365858 0.000877959)
(0.194431 -0.00487748 0.00153996)
(0.192154 -0.00654508 0.00246317)
(0.187405 -0.0087202 0.00312489)
(0.194508 -0.00193289 2.50811e-05)
(0.19447 -0.00224699 9.71026e-05)
(0.194448 -0.00281386 0.000216279)
(0.19433 -0.00368992 0.000431859)
(0.193893 -0.00494401 0.000811056)
(0.192732 -0.00662999 0.00141607)
(0.190051 -0.00870847 0.00225202)
(0.184983 -0.0108588 0.00282454)
(0.194205 -0.00179697 1.8339e-05)
(0.193925 -0.00226478 7.5428e-05)
(0.193601 -0.00298552 0.000164895)
(0.193105 -0.00403352 0.000321126)
(0.192219 -0.00549267 0.000586653)
(0.190603 -0.0074201 0.000990636)
(0.187661 -0.00974127 0.00151077)
(0.182843 -0.0119179 0.00173209)
(0.0375086 -0.00221177 8.39147e-05)
(0.0381178 -0.00203714 0.000310248)
(0.038876 -0.00206524 0.000716421)
(0.0397181 -0.00228925 0.00148598)
(0.0404185 -0.00274907 0.00290793)
(0.0404551 -0.00357903 0.00536529)
(0.0385544 -0.00504953 0.00921842)
(0.0322174 -0.00768061 0.0131104)
(0.0376676 -0.0026732 9.11802e-05)
(0.0380065 -0.00282599 0.000340325)
(0.038494 -0.00328986 0.000778797)
(0.0390265 -0.00410687 0.0016105)
(0.0393151 -0.00535266 0.00315171)
(0.038735 -0.00712904 0.00579686)
(0.0357601 -0.00944418 0.00987248)
(0.0270701 -0.0117487 0.0135115)
(0.037504 -0.0028267 8.55766e-05)
(0.0375009 -0.00330349 0.000322245)
(0.0375942 -0.00416685 0.000729923)
(0.03765 -0.00551481 0.00150118)
(0.0373617 -0.00747167 0.0029341)
(0.0361317 -0.0101306 0.00539385)
(0.0325719 -0.0133174 0.00919581)
(0.0232274 -0.0157085 0.0126267)
(0.0370395 -0.00263519 6.66671e-05)
(0.0366651 -0.00334979 0.000253921)
(0.0362791 -0.00446438 0.000560295)
(0.0357097 -0.00612263 0.00112226)
(0.0346414 -0.00850868 0.00213851)
(0.0325598 -0.011781 0.00383565)
(0.0284324 -0.0158138 0.00637803)
(0.0192968 -0.0190718 0.00829217)
(0.0104526 -0.00230729 0.000101257)
(0.0112601 -0.0020775 0.000432297)
(0.0124364 -0.00203179 0.00106723)
(0.0140488 -0.00211458 0.00235728)
(0.0160611 -0.00228608 0.0049501)
(0.0182681 -0.00254783 0.010031)
(0.0192836 -0.00269917 0.0199063)
(0.0111445 -0.00144279 0.0334457)
(0.010653 -0.00280881 0.000124262)
(0.0111802 -0.00296341 0.000492448)
(0.0121021 -0.00345025 0.00118727)
(0.0134598 -0.00430497 0.00261062)
(0.0151629 -0.00558919 0.00551402)
(0.0169426 -0.00735611 0.0112917)
(0.0171581 -0.00916864 0.0227083)
(0.00506738 -0.00727075 0.0379578)
(0.0104721 -0.00298835 0.000128861)
(0.0106185 -0.00353226 0.000479075)
(0.0110935 -0.004531 0.00112969)
(0.0118984 -0.00613464 0.002468)
(0.0129142 -0.00855074 0.00523147)
(0.0139182 -0.0119329 0.0108333)
(0.0136262 -0.0157051 0.0222394)
(0.000683463 -0.0145587 0.0380549)
(0.00993169 -0.0028004 0.000112407)
(0.00963694 -0.00363382 0.000387092)
(0.00949647 -0.00497598 0.000875868)
(0.00941869 -0.00708952 0.00186065)
(0.00920352 -0.0103861 0.00386997)
(0.00860198 -0.0153477 0.00796988)
(0.00667856 -0.0219671 0.0167097)
(-0.00645467 -0.0250226 0.0296883)
(0.18722 -0.00963769 0.00205004)
(0.185466 -0.0120261 0.0021243)
(0.183149 -0.0128572 0.00212303)
(0.180806 -0.01254 0.00143547)
(0.184191 -0.0113291 0.000833713)
(0.183968 -0.0130631 0.000510665)
(0.183206 -0.0133789 0.00049057)
(0.18207 -0.0124151 1.11895e-05)
(0.182172 -0.012443 0.000116819)
(0.183206 -0.0134043 -0.000402385)
(0.18391 -0.0130886 -0.000429116)
(0.184042 -0.0113535 -0.000722532)
(0.180828 -0.0126311 -0.00128519)
(0.183062 -0.012946 -0.00201502)
(0.185325 -0.0121155 -0.00204079)
(0.187014 -0.00972655 -0.00196348)
(0.0266652 -0.0118343 0.00679474)
(0.0246919 -0.0150698 0.00706787)
(0.0209082 -0.0161863 0.00712874)
(0.0156997 -0.0161099 0.00463605)
(0.021468 -0.0125828 0.00264659)
(0.0224522 -0.014492 0.00148894)
(0.0212819 -0.0149203 0.00151552)
(0.0181585 -0.0141844 -0.000231658)
(0.0182353 -0.0142357 0.000500458)
(0.0212849 -0.0149278 -0.00131853)
(0.0224015 -0.0144692 -0.00130302)
(0.0213447 -0.0125355 -0.00240389)
(0.015711 -0.0161829 -0.00430892)
(0.0208254 -0.0161964 -0.00686276)
(0.0245462 -0.0150552 -0.00684026)
(0.0264538 -0.0118215 -0.00655513)
(-3.71535e-05 0.0135596 0.011158)
(6.43966e-05 0.0129319 0.00958538)
(-0.00412741 0.0123297 0.00909115)
(-0.0129395 0.0100966 0.00376548)
(-0.00604202 0.0186656 0.00573018)
(-0.00177384 0.019846 0.00177121)
(-0.00287555 0.0195702 0.00111174)
(-0.00920075 0.0172006 -0.00351619)
(-0.00929099 0.0172825 0.00367118)
(-0.00291161 0.0196479 -0.000985129)
(-0.00175728 0.0199128 -0.00164923)
(-0.00598285 0.0186774 -0.00558058)
(-0.0129893 0.0102402 -0.00354975)
(-0.00416745 0.0125128 -0.0089018)
(2.0878e-05 0.0131177 -0.00941208)
(-8.3775e-05 0.0136612 -0.0109494)
(0.182635 -0.0118422 -0.00161336)
(0.187446 -0.00970364 -0.00150515)
(0.190457 -0.00740237 -0.00101108)
(0.192124 -0.00548524 -0.000606364)
(0.193044 -0.00403129 -0.00033564)
(0.193564 -0.00298515 -0.000174702)
(0.193904 -0.0022643 -8.22559e-05)
(0.194196 -0.00179511 -2.39841e-05)
(0.184698 -0.0108381 -0.00272211)
(0.189778 -0.00870297 -0.00226726)
(0.192554 -0.00663214 -0.00145291)
(0.193782 -0.00494906 -0.00084105)
(0.194262 -0.00369544 -0.000452264)
(0.194409 -0.00281835 -0.000229285)
(0.19445 -0.00224961 -0.000105611)
(0.194502 -0.00193322 -3.16253e-05)
(0.187093 -0.00874806 -0.00304181)
(0.191866 -0.00656931 -0.00248958)
(0.194246 -0.00489858 -0.00158391)
(0.195061 -0.00367538 -0.000912275)
(0.195172 -0.00282125 -0.000488763)
(0.195008 -0.00226132 -0.000246479)
(0.194788 -0.00194282 -0.000112835)
(0.194612 -0.00183604 -3.46114e-05)
(0.190146 -0.0061108 -0.00310928)
(0.193822 -0.003908 -0.00239101)
(0.195485 -0.00271364 -0.00149454)
(0.195864 -0.00203564 -0.000853512)
(0.195677 -0.00165207 -0.000455853)
(0.195287 -0.00146012 -0.000229187)
(0.194875 -0.00142028 -0.000104493)
(0.194511 -0.00152717 -3.29878e-05)
(0.0190884 -0.0189366 -0.0079795)
(0.0281916 -0.0157236 -0.00638023)
(0.0324219 -0.0117156 -0.00388517)
(0.0345573 -0.00846147 -0.00217964)
(0.0356573 -0.0060898 -0.00115189)
(0.0362485 -0.0044417 -0.000580671)
(0.0366501 -0.00333379 -0.000268587)
(0.0370373 -0.00262325 -7.91533e-05)
(0.0229476 -0.0156308 -0.0123724)
(0.0322531 -0.0132588 -0.00924822)
(0.0359437 -0.0100884 -0.00547691)
(0.0372464 -0.00744196 -0.00299552)
(0.0375786 -0.00549472 -0.00154241)
(0.0375522 -0.00415367 -0.000756656)
(0.0374793 -0.00329512 -0.000340325)
(0.0374983 -0.00282167 -9.98967e-05)
(0.0267528 -0.0117136 -0.0133014)
(0.035413 -0.00941677 -0.00994795)
(0.0385258 -0.00711327 -0.00589413)
(0.0391854 -0.00534406 -0.00322202)
(0.0389459 -0.00410243 -0.001657)
(0.0384461 -0.00328823 -0.000808481)
(0.037981 -0.00282652 -0.000359904)
(0.0376588 -0.00267581 -0.000105952)
(0.0318722 -0.00771623 -0.0129232)
(0.0382105 -0.00506733 -0.00928403)
(0.0402456 -0.00359622 -0.00545475)
(0.0402891 -0.00276473 -0.00297439)
(0.0396379 -0.00230196 -0.00153063)
(0.0388282 -0.00207574 -0.000745188)
(0.0380916 -0.00204668 -0.000329116)
(0.0374979 -0.00222171 -9.76694e-05)
(-0.00626296 -0.0249552 -0.0290988)
(0.00639833 -0.0219491 -0.0167654)
(0.008527 -0.0153165 -0.00806436)
(0.00917237 -0.010352 -0.00393134)
(0.00939861 -0.00706093 -0.00190045)
(0.00948501 -0.00495387 -0.000902076)
(0.00963226 -0.00361721 -0.000405771)
(0.0099333 -0.00278786 -0.000128399)
(0.000945098 -0.0145585 -0.0376233)
(0.0133529 -0.0156649 -0.0223761)
(0.0138385 -0.0119006 -0.0109738)
(0.0128734 -0.00852527 -0.00532001)
(0.0118693 -0.0061153 -0.0025231)
(0.011075 -0.00451713 -0.00116415)
(0.0106086 -0.00352302 -0.000502186)
(0.0104699 -0.00298291 -0.000147239)
(0.00529071 -0.00726556 -0.0376025)
(0.0168874 -0.00911171 -0.0228793)
(0.016855 -0.00732541 -0.0114514)
(0.0151138 -0.00557354 -0.00561425)
(0.013424 -0.00429642 -0.00267258)
(0.0120785 -0.00344616 -0.00122558)
(0.0111663 -0.00296268 -0.000517516)
(0.0106474 -0.0028111 -0.000143275)
(0.0112093 -0.00148903 -0.0330563)
(0.0189909 -0.00265213 -0.0200359)
(0.0181579 -0.00253032 -0.010172)
(0.0160012 -0.00228633 -0.00504274)
(0.0140082 -0.00211985 -0.00241614)
(0.01241 -0.00203884 -0.00110425)
(0.0112438 -0.00208571 -0.000456471)
(0.0104442 -0.00231715 -0.000118916)
(0.19377 -0.00143858 1.00002e-05)
(0.19328 -0.00196182 4.54681e-05)
(0.192676 -0.00267654 9.21231e-05)
(0.191815 -0.00363576 0.000158294)
(0.190484 -0.00487835 0.000236752)
(0.1884 -0.00638579 0.000275385)
(0.185231 -0.007976 0.000121167)
(0.181124 -0.00900507 -0.000740347)
(0.1933 -0.00092018 4.98872e-06)
(0.192686 -0.00140563 2.32196e-05)
(0.191924 -0.00198126 4.07026e-05)
(0.190896 -0.00265379 5.51745e-05)
(0.18945 -0.00338477 4.99326e-05)
(0.187445 -0.00404493 -3.25688e-05)
(0.184836 -0.00433822 -0.000304147)
(0.18212 -0.00366621 -0.00106078)
(0.192864 -0.000333648 3.68832e-06)
(0.192219 -0.000729412 1.11762e-05)
(0.191426 -0.00112163 1.39189e-05)
(0.190407 -0.0014876 7.7486e-06)
(0.189083 -0.00175529 -2.28905e-05)
(0.187423 -0.00177713 -0.000116673)
(0.185543 -0.00130764 -0.000340894)
(0.183944 -9.87453e-06 -0.000834388)
(0.1925 0.00023862 4.34849e-06)
(0.191897 -4.91608e-05 5.92966e-06)
(0.191165 -0.000266531 2.54971e-06)
(0.19026 -0.000381805 -9.38894e-06)
(0.189158 -0.000328073 -4.06475e-05)
(0.187887 1.00557e-05 -0.000113962)
(0.186592 0.000783563 -0.000264483)
(0.185661 0.0021247 -0.000555846)
(0.192224 0.000739657 5.06826e-06)
(0.191713 0.000558217 3.88977e-06)
(0.191093 0.000485449 -6.62552e-07)
(0.190345 0.000549725 -1.14068e-05)
(0.189474 0.000799752 -3.56019e-05)
(0.188535 0.00130631 -8.49609e-05)
(0.18766 0.00214063 -0.00017703)
(0.187118 0.00333484 -0.000335261)
(0.192038 0.00113805 4.59719e-06)
(0.191643 0.0010536 2.34646e-06)
(0.191156 0.00109505 -1.93596e-06)
(0.190574 0.00128201 -9.92621e-06)
(0.189915 0.0016453 -2.53906e-05)
(0.18923 0.00221727 -5.43364e-05)
(0.188624 0.00301589 -0.000104888)
(0.188271 0.00401219 -0.000184686)
(0.191939 0.00142099 2.6809e-06)
(0.19167 0.00142438 4.1563e-07)
(0.191321 0.00155961 -2.89814e-06)
(0.190895 0.00183658 -7.7362e-06)
(0.19041 0.00226753 -1.58339e-05)
(0.189906 0.00285827 -3.00247e-05)
(0.189458 0.00359395 -5.38504e-05)
(0.189171 0.00441838 -8.97709e-05)
(0.191922 0.0015815 -1.71815e-06)
(0.191781 0.00166946 -2.39426e-06)
(0.191568 0.00188502 -3.969e-06)
(0.191283 0.00223517 -5.64281e-06)
(0.190937 0.00271832 -7.45901e-06)
(0.190557 0.00332246 -1.05024e-05)
(0.190187 0.00401304 -1.62611e-05)
(0.189888 0.00472117 -2.59451e-05)
(0.0363754 -0.00211345 4.18775e-05)
(0.0356698 -0.00291019 0.000157623)
(0.034816 -0.004015 0.000317314)
(0.0335884 -0.00553678 0.000556673)
(0.0316253 -0.00758159 0.00086568)
(0.0284013 -0.0101832 0.00108759)
(0.0230974 -0.0130685 0.000609769)
(0.0146956 -0.0148425 -0.00285463)
(0.0356624 -0.0013538 2.64138e-05)
(0.0347617 -0.00208657 8.47487e-05)
(0.0336476 -0.00296532 0.000143474)
(0.0321286 -0.00401064 0.000196755)
(0.0299373 -0.00517271 0.000192646)
(0.0267874 -0.00624527 -7.97864e-05)
(0.0224295 -0.00669316 -0.0010592)
(0.0172075 -0.00522982 -0.00397027)
(0.035007 -0.000494831 2.17821e-05)
(0.034057 -0.00108749 4.42344e-05)
(0.0328888 -0.00167936 5.19624e-05)
(0.0313732 -0.00223842 3.19816e-05)
(0.0293658 -0.00265432 -7.05941e-05)
(0.0267806 -0.00267913 -0.000395534)
(0.0237073 -0.00188229 -0.00119391)
(0.020772 0.000441912 -0.0029994)
(0.0344641 0.000341778 2.26723e-05)
(0.0335764 -8.65886e-05 2.57418e-05)
(0.0324951 -0.000411701 1.26602e-05)
(0.0311504 -0.00058614 -2.82816e-05)
(0.029489 -0.000504545 -0.000135728)
(0.027536 2.53655e-05 -0.000389987)
(0.0254703 0.00126728 -0.000922423)
(0.0238495 0.00351407 -0.00196126)
(0.0340556 0.0010731 2.33671e-05)
(0.0333031 0.000804334 1.75924e-05)
(0.0323885 0.000696169 3.88543e-07)
(0.0312793 0.00079162 -3.70435e-05)
(0.029976 0.00116819 -0.000119932)
(0.0285499 0.00194348 -0.000288938)
(0.0271886 0.00324399 -0.000605847)
(0.0262969 0.00516103 -0.00114942)
(0.0337809 0.00165416 2.01675e-05)
(0.0331993 0.00152987 1.08766e-05)
(0.0324821 0.00159084 -5.18589e-06)
(0.0316223 0.00186773 -3.31235e-05)
(0.0306413 0.00240987 -8.6158e-05)
(0.0296136 0.00327161 -0.000184276)
(0.028692 0.00449017 -0.000354493)
(0.028139 0.00603923 -0.000620436)
(0.0336349 0.0020661 1.241e-05)
(0.0332395 0.00207258 2.6908e-06)
(0.0327263 0.00227212 -9.93147e-06)
(0.0320985 0.00268094 -2.73085e-05)
(0.0313807 0.0033197 -5.53468e-05)
(0.0306323 0.00420023 -0.000103238)