/*--------------------------------*- C++ -*----------------------------------*\
  =========                 |
  \\      /  F ield         | OpenFOAM: The Open Source CFD Toolbox
   \\    /   O peration     | Website:  https://openfoam.org
    \\  /    A nd           | Version:  7
     \\/     M anipulation  |
\*---------------------------------------------------------------------------*/
FoamFile
{
    version     2.0;
    format      ascii;
    class       volScalarField;
    location    "3";
    object      p;
}
// * * * * * * * * * * * * * * * * * * * * * * * * * * * * * * * * * * * * * //

dimensions      [0 2 -2 0 0 0 0];

internalField   nonuniform List<scalar> 
7784
(
-7.2096e-11
-0.00021403
-0.000558702
-0.000865902
-0.00107777
-0.00122628
-0.00134295
6.44577e-06
-0.000238563
-0.000591626
-0.000883561
-0.0010833
-0.00122747
-0.0013432
-5.92626e-05
-0.000297159
-0.000629963
-0.000902722
-0.00109191
-0.00123161
-0.00134537
-0.000101006
-0.000332254
-0.00065415
-0.000917051
-0.00110005
-0.0012369
-0.00134807
-0.000125401
-0.000353601
-0.00067027
-0.000927806
-0.00110679
-0.00124133
-0.00135057
-0.000141061
-0.000367792
-0.000681492
-0.00093574
-0.00111203
-0.00124464
-0.0013526
-0.000150931
-0.000376906
-0.000688969
-0.000941301
-0.00111592
-0.0012473
-0.00135422
-0.00035762
-0.000553054
-0.000807237
-0.00101252
-0.00115833
-0.00127253
-0.00137037
-0.000369822
-0.000573371
-0.000824413
-0.00101938
-0.0011587
-0.00127115
-0.00136844
-0.000406391
-0.000604681
-0.000843465
-0.00102792
-0.00116206
-0.00127232
-0.00136823
-0.000429631
-0.000623729
-0.000856209
-0.00103527
-0.0011661
-0.00127389
-0.0013689
-0.000443615
-0.00063601
-0.000865487
-0.00104142
-0.00116988
-0.00127578
-0.00136981
-0.000453218
-0.000644892
-0.000872576
-0.00104642
-0.00117316
-0.00127782
-0.00137086
-0.000459604
-0.000650962
-0.000877624
-0.00105016
-0.00117575
-0.00127944
-0.00137181
-0.000686348
-0.00081059
-0.000972129
-0.00110978
-0.00121912
-0.00131292
-0.00139714
-0.000690096
-0.000815804
-0.000974952
-0.00110889
-0.00121616
-0.00130978
-0.00139432
-0.000703224
-0.000827621
-0.000982161
-0.00111174
-0.00121672
-0.00130935
-0.00139336
-0.000713462
-0.000836688
-0.00098856
-0.00111544
-0.00121862
-0.00131005
-0.0013934
-0.000720585
-0.000843405
-0.00099383
-0.00111895
-0.00122071
-0.0013111
-0.00139378
-0.000725921
-0.000848691
-0.000998203
-0.00112206
-0.00122273
-0.0013123
-0.00139436
-0.00072967
-0.000852527
-0.00100152
-0.00112455
-0.00122446
-0.00131339
-0.00139495
-0.00144
-0.00152483
-0.0016031
-0.0016795
-0.00175813
-0.00184307
-0.00143945
-0.00152387
-0.00160205
-0.00167843
-0.00175694
-0.00184173
-0.00144019
-0.0015236
-0.00160133
-0.0016774
-0.00175554
-0.00183975
-0.00144139
-0.00152373
-0.00160085
-0.00167646
-0.00175409
-0.00183762
-0.00144256
-0.00152398
-0.0016005
-0.00167561
-0.00175272
-0.00183561
-0.00144361
-0.00152427
-0.00160024
-0.00167488
-0.00175151
-0.00183383
-0.00144446
-0.00152455
-0.00160006
-0.00167429
-0.00175051
-0.00183236
-0.00145667
-0.00153485
-0.00160893
-0.00168226
-0.00175802
-0.00183981
-0.00145482
-0.00153322
-0.00160757
-0.00168112
-0.00175701
-0.00183874
-0.00145402
-0.00153231
-0.00160655
-0.00167999
-0.00175567
-0.00183696
-0.00145394
-0.0015319
-0.00160582
-0.00167895
-0.00175423
-0.001835
-0.00145418
-0.00153169
-0.00160524
-0.00167801
-0.00175289
-0.00183314
-0.00145456
-0.00153162
-0.00160479
-0.00167721
-0.0017517
-0.00183148
-0.00145498
-0.00153163
-0.00160446
-0.00167656
-0.00175071
-0.00183009
-0.00147368
-0.00154478
-0.00161305
-0.00168092
-0.00175078
-0.00182508
-0.00147127
-0.00154283
-0.00161153
-0.00167976
-0.00174988
-0.0018243
-0.0014701
-0.00154166
-0.0016104
-0.00167862
-0.00174866
-0.00182282
-0.0014697
-0.00154101
-0.00160956
-0.00167759
-0.00174735
-0.0018211
-0.00146961
-0.00154059
-0.00160887
-0.00167664
-0.00174609
-0.0018194
-0.00146972
-0.00154034
-0.00160834
-0.00167584
-0.00174497
-0.00181786
-0.00146992
-0.00154021
-0.00160794
-0.00167518
-0.00174404
-0.00181659
-0.0019401
-0.00205676
-0.00220341
-0.00239499
-0.00264034
-0.00288564
-0.00286754
-0.00193817
-0.00205361
-0.00219769
-0.00238334
-0.00262209
-0.00287768
-0.0028816
-0.00193517
-0.00204878
-0.0021898
-0.00237001
-0.00259922
-0.00284468
-0.00284428
-0.00193201
-0.00204394
-0.00218242
-0.00235877
-0.0025823
-0.00282222
-0.00281925
-0.00192911
-0.00203969
-0.00217627
-0.00235002
-0.00257024
-0.00280743
-0.00280341
-0.00192662
-0.00203616
-0.0021714
-0.00234341
-0.00256161
-0.00279717
-0.00279257
-0.00192459
-0.00203339
-0.00216771
-0.00233862
-0.00255562
-0.00279027
-0.00278536
-0.00193203
-0.00203968
-0.00216765
-0.00232101
-0.00251013
-0.00269278
-0.00270296
-0.00193057
-0.00203738
-0.00216353
-0.00231213
-0.00249547
-0.00268419
-0.00270591
-0.00192803
-0.00203339
-0.00215727
-0.00230177
-0.00247838
-0.00266109
-0.00268225
-0.0019253
-0.00202923
-0.00215115
-0.00229287
-0.00246583
-0.00264547
-0.0026661
-0.00192284
-0.00202551
-0.00214591
-0.00228571
-0.0024566
-0.00263487
-0.00265554
-0.00192072
-0.00202237
-0.00214165
-0.00228013
-0.00244969
-0.00262708
-0.0026478
-0.00191885
-0.00201986
-0.00213837
-0.00227599
-0.00244472
-0.00262159
-0.00264234
-0.00190696
-0.00199952
-0.00210385
-0.00222078
-0.0023521
-0.0024652
-0.00247271
-0.00190601
-0.00199812
-0.00210144
-0.00221562
-0.00234369
-0.0024589
-0.00246768
-0.00190391
-0.00199513
-0.00209706
-0.00220879
-0.00233308
-0.00244596
-0.00245573
-0.00190142
-0.00199176
-0.00209242
-0.00220241
-0.00232454
-0.00243618
-0.00244667
-0.00189894
-0.00198861
-0.00208825
-0.00219699
-0.00231783
-0.0024289
-0.00243995
-0.00189671
-0.00198588
-0.00208475
-0.0021926
-0.00231255
-0.00242325
-0.00243468
-0.00189501
-0.00198368
-0.00208199
-0.00218923
-0.00230863
-0.0024191
-0.00243079
-0.000156891
-0.000382525
-0.000693746
-0.000945012
-0.00111866
-0.00124934
-0.00135544
-0.000160265
-0.000385768
-0.000696579
-0.00094728
-0.00112038
-0.00125064
-0.00135622
-0.000161791
-0.000387254
-0.000697898
-0.000948354
-0.00112121
-0.00125126
-0.0013566
-0.000161792
-0.000387254
-0.000697898
-0.000948354
-0.00112121
-0.00125126
-0.0013566
-0.000160265
-0.000385768
-0.000696579
-0.00094728
-0.00112038
-0.00125064
-0.00135622
-0.000156891
-0.000382525
-0.000693745
-0.000945012
-0.00111866
-0.00124934
-0.00135544
-0.000463594
-0.000654864
-0.000880999
-0.00105278
-0.00117762
-0.00128058
-0.00137254
-0.000465905
-0.000657182
-0.000883061
-0.00105442
-0.00117882
-0.00128135
-0.00137306
-0.000466965
-0.000658262
-0.000884038
-0.00105522
-0.00117941
-0.00128174
-0.00137332
-0.000466965
-0.000658262
-0.000884038
-0.00105522
-0.00117941
-0.00128174
-0.00137332
-0.000465905
-0.000657182
-0.000883061
-0.00105442
-0.00117882
-0.00128135
-0.00137306
-0.000463594
-0.000654864
-0.000880998
-0.00105278
-0.00117762
-0.00128057
-0.00137254
-0.000732103
-0.0008551
-0.00100382
-0.00112636
-0.00122576
-0.00131424
-0.00139545
-0.000733546
-0.000856669
-0.00100527
-0.00112752
-0.00122662
-0.00131482
-0.0013958
-0.000734216
-0.000857411
-0.00100597
-0.00112809
-0.00122705
-0.00131512
-0.00139599
-0.000734216
-0.000857411
-0.00100597
-0.00112809
-0.00122705
-0.00131512
-0.00139599
-0.000733546
-0.000856669
-0.00100527
-0.00112752
-0.00122662
-0.00131482
-0.0013958
-0.000732103
-0.000855099
-0.00100382
-0.00112636
-0.00122576
-0.00131424
-0.00139545
-0.00144511
-0.00152479
-0.00159993
-0.00167384
-0.00174975
-0.00183124
-0.00144553
-0.00152496
-0.00159986
-0.00167355
-0.00174924
-0.0018305
-0.00144574
-0.00152504
-0.00159982
-0.0016734
-0.00174898
-0.00183012
-0.00144574
-0.00152504
-0.00159982
-0.0016734
-0.00174898
-0.00183012
-0.00144553
-0.00152495
-0.00159985
-0.00167355
-0.00174923
-0.00183049
-0.0014451
-0.00152479
-0.00159993
-0.00167384
-0.00174974
-0.00183124
-0.00145534
-0.00153165
-0.00160422
-0.00167606
-0.00174995
-0.00182902
-0.0014556
-0.00153168
-0.00160407
-0.00167574
-0.00174944
-0.0018283
-0.00145574
-0.00153169
-0.001604
-0.00167557
-0.00174918
-0.00182794
-0.00145574
-0.00153169
-0.001604
-0.00167557
-0.00174918
-0.00182794
-0.0014556
-0.00153168
-0.00160407
-0.00167573
-0.00174944
-0.0018283
-0.00145534
-0.00153165
-0.00160422
-0.00167606
-0.00174995
-0.00182901
-0.00147011
-0.00154015
-0.00160766
-0.00167469
-0.00174332
-0.00181562
-0.00147026
-0.00154012
-0.00160747
-0.00167436
-0.00174284
-0.00181498
-0.00147034
-0.00154011
-0.00160738
-0.00167419
-0.0017426
-0.00181465
-0.00147034
-0.00154011
-0.00160738
-0.00167419
-0.0017426
-0.00181465
-0.00147026
-0.00154012
-0.00160747
-0.00167436
-0.00174284
-0.00181497
-0.00147011
-0.00154015
-0.00160765
-0.00167468
-0.00174331
-0.00181562
-0.00192306
-0.00203137
-0.00216509
-0.00233532
-0.00255164
-0.00278581
-0.00278077
-0.00192205
-0.00203005
-0.00216341
-0.00233326
-0.00254921
-0.00278314
-0.00277804
-0.00192154
-0.00202939
-0.00216259
-0.00233227
-0.00254806
-0.00278188
-0.00277677
-0.00192154
-0.00202939
-0.00216259
-0.00233226
-0.00254806
-0.00278188
-0.00277677
-0.00192204
-0.00203004
-0.0021634
-0.00233325
-0.00254921
-0.00278313
-0.00277804
-0.00192305
-0.00203136
-0.00216507
-0.00233531
-0.00255163
-0.0027858
-0.00278075
-0.00191742
-0.00201801
-0.00213601
-0.00227309
-0.00244134
-0.00261793
-0.00263874
-0.00191647
-0.00201679
-0.00213448
-0.00227126
-0.00243924
-0.00261569
-0.00263654
-0.00191599
-0.00201619
-0.00213374
-0.00227037
-0.00243823
-0.00261462
-0.00263551
-0.00191599
-0.00201619
-0.00213374
-0.00227037
-0.00243823
-0.00261462
-0.0026355
-0.00191647
-0.00201679
-0.00213448
-0.00227125
-0.00243923
-0.00261568
-0.00263654
-0.00191741
-0.002018
-0.002136
-0.00227308
-0.00244133
-0.00261792
-0.00263872
-0.00189373
-0.00198204
-0.00207997
-0.00218682
-0.00230589
-0.00241624
-0.00242812
-0.00189288
-0.00198096
-0.00207866
-0.00218527
-0.00230416
-0.00241446
-0.00242646
-0.00189246
-0.00198042
-0.00207801
-0.00218452
-0.00230332
-0.0024136
-0.00242567
-0.00189245
-0.00198042
-0.00207801
-0.00218452
-0.00230332
-0.0024136
-0.00242566
-0.00189288
-0.00198095
-0.00207865
-0.00218527
-0.00230416
-0.00241445
-0.00242646
-0.00189373
-0.00198203
-0.00207996
-0.00218681
-0.00230588
-0.00241623
-0.00242811
-0.00015093
-0.000376905
-0.000688967
-0.000941299
-0.00111592
-0.0012473
-0.00135422
-0.000141058
-0.00036779
-0.00068149
-0.000935739
-0.00111203
-0.00124464
-0.00135259
-0.000125396
-0.000353596
-0.000670267
-0.000927804
-0.00110678
-0.00124132
-0.00135057
-0.000100997
-0.000332247
-0.000654146
-0.000917048
-0.00110005
-0.0012369
-0.00134807
-5.92486e-05
-0.000297149
-0.000629958
-0.000902718
-0.0010919
-0.00123161
-0.00134536
6.4635e-06
-0.000238549
-0.000591621
-0.000883559
-0.0010833
-0.00122747
-0.0013432
1.44437e-08
-0.000214019
-0.0005587
-0.000865904
-0.00107778
-0.00122628
-0.00134295
-0.000459603
-0.000650961
-0.000877623
-0.00105016
-0.00117575
-0.00127944
-0.00137181
-0.000453216
-0.00064489
-0.000872574
-0.00104641
-0.00117316
-0.00127782
-0.00137086
-0.000443609
-0.000636005
-0.000865484
-0.00104141
-0.00116988
-0.00127578
-0.00136981
-0.000429619
-0.00062372
-0.000856204
-0.00103526
-0.0011661
-0.00127389
-0.0013689
-0.000406372
-0.000604668
-0.000843458
-0.00102792
-0.00116205
-0.00127232
-0.00136823
-0.000369798
-0.000573354
-0.000824406
-0.00101938
-0.0011587
-0.00127115
-0.00136845
-0.000357596
-0.000553038
-0.000807236
-0.00101253
-0.00115834
-0.00127254
-0.00137037
-0.000729669
-0.000852526
-0.00100151
-0.00112455
-0.00122446
-0.00131339
-0.00139495
-0.000725918
-0.000848689
-0.000998202
-0.00112206
-0.00122273
-0.0013123
-0.00139436
-0.000720579
-0.000843401
-0.000993827
-0.00111894
-0.00122071
-0.0013111
-0.00139378
-0.00071345
-0.00083668
-0.000988556
-0.00111544
-0.00121862
-0.00131005
-0.0013934
-0.000703205
-0.000827609
-0.000982155
-0.00111173
-0.00121672
-0.00130935
-0.00139336
-0.00069007
-0.000815789
-0.000974948
-0.00110889
-0.00121616
-0.00130979
-0.00139432
-0.000686323
-0.000810578
-0.000972129
-0.00110979
-0.00121913
-0.00131293
-0.00139715
-0.00144446
-0.00152455
-0.00160005
-0.00167428
-0.00175051
-0.00183235
-0.00144361
-0.00152427
-0.00160024
-0.00167487
-0.0017515
-0.00183381
-0.00144256
-0.00152397
-0.00160049
-0.0016756
-0.00175271
-0.00183559
-0.00144138
-0.00152372
-0.00160085
-0.00167645
-0.00175408
-0.00183761
-0.00144018
-0.0015236
-0.00160132
-0.00167739
-0.00175553
-0.00183974
-0.00143945
-0.00152387
-0.00160205
-0.00167842
-0.00175693
-0.00184171
-0.00144
-0.00152483
-0.0016031
-0.00167949
-0.00175812
-0.00184306
-0.00145498
-0.00153162
-0.00160445
-0.00167655
-0.0017507
-0.00183008
-0.00145456
-0.00153162
-0.00160478
-0.0016772
-0.00175169
-0.00183147
-0.00145417
-0.00153169
-0.00160523
-0.001678
-0.00175288
-0.00183312
-0.00145394
-0.0015319
-0.00160581
-0.00167894
-0.00175422
-0.00183499
-0.00145401
-0.00153231
-0.00160655
-0.00167998
-0.00175565
-0.00183695
-0.00145483
-0.00153322
-0.00160756
-0.00168111
-0.001757
-0.00183873
-0.00145668
-0.00153485
-0.00160893
-0.00168225
-0.00175801
-0.0018398
-0.00146991
-0.00154021
-0.00160794
-0.00167518
-0.00174403
-0.00181658
-0.00146972
-0.00154034
-0.00160834
-0.00167583
-0.00174496
-0.00181785
-0.00146961
-0.00154058
-0.00160887
-0.00167664
-0.00174609
-0.00181938
-0.0014697
-0.001541
-0.00160955
-0.00167758
-0.00174734
-0.00182109
-0.0014701
-0.00154166
-0.00161039
-0.00167862
-0.00174865
-0.00182281
-0.00147127
-0.00154283
-0.00161153
-0.00167975
-0.00174987
-0.00182429
-0.00147368
-0.00154478
-0.00161304
-0.00168091
-0.00175077
-0.00182507
-0.00192458
-0.00203338
-0.0021677
-0.00233861
-0.00255561
-0.00279026
-0.00278534
-0.00192661
-0.00203614
-0.00217138
-0.00234339
-0.00256159
-0.00279715
-0.00279254
-0.00192909
-0.00203967
-0.00217625
-0.00234999
-0.00257021
-0.00280739
-0.00280338
-0.00193199
-0.00204392
-0.00218239
-0.00235874
-0.00258226
-0.00282218
-0.00281921
-0.00193515
-0.00204876
-0.00218977
-0.00236998
-0.00259918
-0.00284463
-0.00284422
-0.00193815
-0.00205359
-0.00219766
-0.0023833
-0.00262205
-0.00287763
-0.00288154
-0.00194008
-0.00205673
-0.00220338
-0.00239495
-0.00264029
-0.00288559
-0.00286747
-0.00191884
-0.00201985
-0.00213835
-0.00227598
-0.0024447
-0.00262158
-0.00264233
-0.0019207
-0.00202236
-0.00214163
-0.00228012
-0.00244967
-0.00262706
-0.00264777
-0.00192282
-0.00202549
-0.00214589
-0.00228569
-0.00245658
-0.00263484
-0.00265551
-0.00192528
-0.0020292
-0.00215113
-0.00229284
-0.0024658
-0.00264543
-0.00266606
-0.00192801
-0.00203336
-0.00215724
-0.00230174
-0.00247834
-0.00266105
-0.0026822
-0.00193055
-0.00203736
-0.0021635
-0.00231209
-0.00249543
-0.00268414
-0.00270586
-0.00193201
-0.00203966
-0.00216762
-0.00232098
-0.00251009
-0.00269273
-0.0027029
-0.001895
-0.00198367
-0.00208198
-0.00218921
-0.00230862
-0.00241908
-0.00243077
-0.0018967
-0.00198586
-0.00208474
-0.00219258
-0.00231253
-0.00242323
-0.00243465
-0.00189893
-0.0019886
-0.00208824
-0.00219697
-0.0023178
-0.00242887
-0.00243992
-0.00190141
-0.00199174
-0.0020924
-0.00220238
-0.00232451
-0.00243615
-0.00244663
-0.00190389
-0.00199511
-0.00209704
-0.00220876
-0.00233304
-0.00244591
-0.00245569
-0.00190599
-0.0019981
-0.00210142
-0.00221558
-0.00234365
-0.00245885
-0.00246763
-0.00190695
-0.0019995
-0.00210382
-0.00222075
-0.00235206
-0.00246515
-0.00247266
-0.000949586
-0.00100888
-0.00110386
-0.00119889
-0.00128254
-0.00135825
-0.00142836
-0.000944417
-0.00100436
-0.00110071
-0.00119549
-0.00127874
-0.00135473
-0.00142538
-0.000945875
-0.00100692
-0.00110258
-0.00119571
-0.00127791
-0.00135349
-0.00142399
-0.000949108
-0.00101064
-0.0011055
-0.00119731
-0.00127851
-0.00135345
-0.00142356
-0.000951899
-0.00101381
-0.00110815
-0.00119905
-0.00127945
-0.0013538
-0.00142351
-0.000954216
-0.00101651
-0.00111054
-0.00120077
-0.00128054
-0.00135438
-0.00142368
-0.00095596
-0.0010186
-0.00111247
-0.00120225
-0.00128156
-0.00135499
-0.00142395
-0.00115266
-0.00117131
-0.00122375
-0.00128671
-0.00134724
-0.00140525
-0.00146122
-0.00114521
-0.00116415
-0.00121899
-0.00128257
-0.0013432
-0.0014017
-0.00145828
-0.00114237
-0.00116288
-0.00121826
-0.0012813
-0.00134154
-0.00139998
-0.00145665
-0.00114212
-0.0011636
-0.00121895
-0.00128143
-0.00134121
-0.00139938
-0.00145588
-0.00114236
-0.00116452
-0.00121978
-0.00128189
-0.00134131
-0.00139918
-0.00145548
-0.00114276
-0.0011655
-0.00122072
-0.00128256
-0.00134166
-0.00139926
-0.00145534
-0.00114315
-0.00116634
-0.00122159
-0.00128323
-0.00134209
-0.00139947
-0.00145534
-0.00131386
-0.00130663
-0.00133085
-0.00136877
-0.00140932
-0.00145132
-0.00149399
-0.00130701
-0.00129952
-0.00132597
-0.00136452
-0.0014054
-0.00144796
-0.00149124
-0.00130259
-0.00129641
-0.00132415
-0.00136253
-0.00140334
-0.00144605
-0.00148953
-0.00130052
-0.00129548
-0.00132344
-0.00136172
-0.00140243
-0.00144509
-0.00148857
-0.00129936
-0.00129528
-0.00132292
-0.00136128
-0.00140193
-0.00144452
-0.00148794
-0.00129864
-0.00129528
-0.0013228
-0.00136117
-0.00140174
-0.00144424
-0.00148757
-0.00129817
-0.00129534
-0.00132287
-0.00136126
-0.00140174
-0.00144414
-0.00148737
-0.00144629
-0.00141507
-0.00142331
-0.0014425
-0.0014668
-0.00149497
-0.00152558
-0.00143959
-0.00140905
-0.00141939
-0.00143866
-0.00146328
-0.00149198
-0.00152313
-0.00143421
-0.00140415
-0.00141872
-0.00143666
-0.00146118
-0.00149009
-0.00152148
-0.00143106
-0.00140285
-0.0014171
-0.00143537
-0.00145996
-0.00148895
-0.00152043
-0.00142915
-0.00140346
-0.00141454
-0.00143425
-0.00145909
-0.00148815
-0.00151967
-0.00142772
-0.00140341
-0.00141334
-0.00143362
-0.00145856
-0.00148763
-0.00151916
-0.00142664
-0.00140323
-0.00141272
-0.00143333
-0.00145827
-0.00148733
-0.00151882
-0.00154337
-0.00151071
-0.0015015
-0.00150679
-0.0015185
-0.00153507
-0.00155505
-0.00153941
-0.00150534
-0.0014976
-0.00150341
-0.00151546
-0.0015325
-0.00155294
-0.00153531
-0.00150186
-0.00149533
-0.00150124
-0.00151344
-0.00153072
-0.00155142
-0.00153245
-0.00149985
-0.00149366
-0.00149977
-0.00151212
-0.00152954
-0.00155037
-0.0015304
-0.00149859
-0.00149217
-0.00149861
-0.00151113
-0.00152865
-0.00154957
-0.00152883
-0.00149762
-0.00149116
-0.0014978
-0.00151043
-0.00152802
-0.00154898
-0.00152765
-0.00149689
-0.00149049
-0.00149727
-0.00150997
-0.00152759
-0.00154857
-0.00162275
-0.00158628
-0.0015673
-0.00156235
-0.00156408
-0.00157102
-0.00158184
-0.00162045
-0.00158196
-0.00156401
-0.00155955
-0.00156154
-0.00156886
-0.00158006
-0.00161733
-0.00157911
-0.00156176
-0.00155753
-0.00155972
-0.00156728
-0.00157871
-0.00161487
-0.00157715
-0.00156014
-0.00155609
-0.00155844
-0.00156615
-0.00157772
-0.00161293
-0.00157563
-0.00155881
-0.00155494
-0.00155743
-0.00156526
-0.00157694
-0.00161139
-0.00157446
-0.0015578
-0.00155408
-0.00155668
-0.0015646
-0.00157634
-0.00161021
-0.00157358
-0.00155708
-0.00155347
-0.00155615
-0.00156411
-0.0015759
-0.0014938
-0.0015559
-0.00161626
-0.00167643
-0.00173791
-0.00180236
-0.00149134
-0.00155396
-0.00161478
-0.00167535
-0.00173717
-0.00180182
-0.00148997
-0.00155269
-0.00161364
-0.0016743
-0.00173613
-0.00180069
-0.00148931
-0.00155191
-0.00161278
-0.00167334
-0.00173501
-0.00179931
-0.00148896
-0.00155136
-0.00161206
-0.00167246
-0.00173392
-0.00179791
-0.00148883
-0.00155099
-0.00161149
-0.00167169
-0.00173293
-0.00179663
-0.00148883
-0.00155076
-0.00161106
-0.00167107
-0.0017321
-0.00179555
-0.00151509
-0.00156733
-0.00161869
-0.00167
-0.00172199
-0.00177548
-0.00151272
-0.00156548
-0.00161732
-0.00166903
-0.00172139
-0.00177515
-0.00151125
-0.0015642
-0.00161623
-0.00166809
-0.00172056
-0.00177433
-0.00151041
-0.00156335
-0.00161538
-0.00166723
-0.00171963
-0.00177328
-0.00150987
-0.00156271
-0.00161466
-0.00166643
-0.00171872
-0.00177219
-0.00150955
-0.00156226
-0.00161409
-0.00166574
-0.00171788
-0.00177117
-0.00150939
-0.00156195
-0.00161365
-0.00166517
-0.00171717
-0.00177028
-0.00153652
-0.00157873
-0.00162072
-0.00166271
-0.00170489
-0.00174739
-0.00153433
-0.00157703
-0.00161948
-0.00166187
-0.00170441
-0.00174721
-0.00153285
-0.0015758
-0.00161846
-0.00166104
-0.00170373
-0.00174663
-0.00153192
-0.00157492
-0.00161765
-0.00166027
-0.00170298
-0.00174585
-0.00153126
-0.00157425
-0.00161696
-0.00165956
-0.00170223
-0.00174501
-0.00153082
-0.00157374
-0.0016164
-0.00165894
-0.00170153
-0.00174421
-0.00153053
-0.00157338
-0.00161596
-0.00165843
-0.00170093
-0.00174351
-0.00155741
-0.00158985
-0.00162256
-0.00165531
-0.00168788
-0.00171994
-0.00155546
-0.00158835
-0.00162146
-0.00165458
-0.00168749
-0.00171984
-0.00155406
-0.0015872
-0.00162054
-0.00165386
-0.00168694
-0.00171944
-0.00155311
-0.00158635
-0.00161979
-0.00165319
-0.00168633
-0.00171886
-0.00155239
-0.00158567
-0.00161914
-0.00165257
-0.00168571
-0.00171822
-0.00155187
-0.00158514
-0.00161861
-0.00165202
-0.00168514
-0.0017176
-0.00155151
-0.00158475
-0.00161819
-0.00165157
-0.00168464
-0.00171705
-0.00157712
-0.00160039
-0.00162426
-0.00164822
-0.00167174
-0.00169424
-0.00157543
-0.00159909
-0.00162331
-0.00164759
-0.00167142
-0.00169418
-0.00157415
-0.00159805
-0.0016225
-0.00164698
-0.00167097
-0.00169388
-0.00157324
-0.00159726
-0.00162182
-0.0016464
-0.00167048
-0.00169345
-0.00157251
-0.0015966
-0.00162123
-0.00164585
-0.00166997
-0.00169297
-0.00157196
-0.00159608
-0.00162073
-0.00164537
-0.0016695
-0.00169249
-0.00157156
-0.00159569
-0.00162034
-0.00164498
-0.00166909
-0.00169206
-0.0015952
-0.00161013
-0.00162585
-0.00164169
-0.00165694
-0.00167087
-0.00159377
-0.00160902
-0.00162504
-0.00164115
-0.00165667
-0.00167083
-0.00159265
-0.00160811
-0.00162433
-0.00164062
-0.0016563
-0.00167061
-0.00159179
-0.00160739
-0.00162373
-0.00164012
-0.00165589
-0.00167027
-0.0015911
-0.00160678
-0.00162319
-0.00163965
-0.00165548
-0.0016699
-0.00159055
-0.00160628
-0.00162274
-0.00163923
-0.00165509
-0.00166953
-0.00159015
-0.0016059
-0.00162237
-0.00163888
-0.00165474
-0.00166919
-0.00187132
-0.00194588
-0.00202544
-0.00210855
-0.00219234
-0.00225061
-0.00224295
-0.00187081
-0.00194526
-0.00202439
-0.00210623
-0.00218928
-0.00224977
-0.00224025
-0.00186938
-0.00194334
-0.00202173
-0.00210231
-0.00218374
-0.00224415
-0.00223596
-0.00186756
-0.00194095
-0.00201857
-0.00209815
-0.0021785
-0.00223869
-0.0022315
-0.00186573
-0.0019386
-0.00201558
-0.00209441
-0.00217406
-0.00223413
-0.00222757
-0.00186405
-0.00193649
-0.00201295
-0.00209123
-0.00217039
-0.00223038
-0.00222426
-0.00186265
-0.00193475
-0.00201082
-0.0020887
-0.00216754
-0.00222749
-0.00222171
-0.00183094
-0.00188824
-0.00194585
-0.00200149
-0.00205146
-0.00207554
-0.00205324
-0.00183079
-0.00188821
-0.00194577
-0.00200097
-0.00205118
-0.00207758
-0.00205332
-0.00182989
-0.00188711
-0.00194436
-0.00199896
-0.00204858
-0.00207553
-0.00205232
-0.00182861
-0.00188552
-0.00194236
-0.00199646
-0.00204559
-0.00207269
-0.00205023
-0.00182727
-0.00188387
-0.00194034
-0.00199405
-0.00204288
-0.00207008
-0.00204805
-0.001826
-0.00188232
-0.00193849
-0.00199189
-0.0020405
-0.00206777
-0.00204612
-0.00182491
-0.001881
-0.00193693
-0.0019901
-0.00203856
-0.0020659
-0.00204456
-0.00179002
-0.00183199
-0.00187139
-0.00190577
-0.00193194
-0.0019347
-0.00189597
-0.00179009
-0.00183228
-0.00187183
-0.00190611
-0.00193259
-0.00193698
-0.00189681
-0.00178955
-0.00183172
-0.00187119
-0.00190526
-0.00193158
-0.00193659
-0.00189687
-0.00178867
-0.00183071
-0.00187001
-0.00190389
-0.0019301
-0.00193548
-0.00189573
-0.00178771
-0.00182959
-0.00186873
-0.00190245
-0.00192864
-0.00193433
-0.00189432
-0.00178678
-0.0018285
-0.00186748
-0.00190107
-0.00192721
-0.00193305
-0.00189324
-0.00178595
-0.00182754
-0.00186638
-0.00189986
-0.00192597
-0.00193192
-0.0018924
-0.0017509
-0.00177966
-0.0018043
-0.00182258
-0.00183305
-0.00182858
-0.00175407
-0.00175106
-0.00178008
-0.00180493
-0.00182325
-0.00183374
-0.00182921
-0.00175687
-0.00175076
-0.00177984
-0.00180474
-0.00182304
-0.0018336
-0.00183007
-0.00175695
-0.00175017
-0.00177923
-0.0018041
-0.0018224
-0.0018332
-0.00183116
-0.0017551
-0.0017495
-0.0017785
-0.00180333
-0.00182163
-0.00183272
-0.00183222
-0.00175284
-0.00174882
-0.00177775
-0.00180252
-0.0018208
-0.00183196
-0.00183171
-0.00175229
-0.0017482
-0.00177706
-0.00180177
-0.00182002
-0.0018312
-0.00183106
-0.00175207
-0.00171487
-0.00173243
-0.00174509
-0.00175086
-0.00174763
-0.00172563
-0.00167362
-0.00171506
-0.00173285
-0.00174572
-0.00175155
-0.00174858
-0.00172744
-0.00167371
-0.00171489
-0.00173279
-0.00174575
-0.00175162
-0.00174873
-0.00172801
-0.00167415
-0.0017145
-0.00173242
-0.00174541
-0.00175133
-0.00174854
-0.00172816
-0.00167393
-0.00171402
-0.00173195
-0.00174495
-0.0017509
-0.00174824
-0.00172815
-0.00167344
-0.00171353
-0.00173144
-0.00174443
-0.00175039
-0.0017478
-0.00172786
-0.00167319
-0.00171307
-0.00173096
-0.00174393
-0.0017499
-0.00174735
-0.00172752
-0.00167305
-0.00168255
-0.00169076
-0.00169387
-0.0016902
-0.00167804
-0.0016493
-0.00160166
-0.00168272
-0.00169114
-0.00169442
-0.00169079
-0.00167889
-0.00165088
-0.00160074
-0.00168262
-0.00169115
-0.00169452
-0.00169094
-0.00167909
-0.00165135
-0.00160104
-0.00168235
-0.00169093
-0.00169435
-0.00169081
-0.00167902
-0.00165142
-0.00160114
-0.00168201
-0.00169062
-0.00169407
-0.00169057
-0.00167884
-0.00165135
-0.00160107
-0.00168165
-0.00169026
-0.00169372
-0.00169025
-0.00167858
-0.00165119
-0.001601
-0.00168131
-0.00168992
-0.00169339
-0.00168993
-0.0016783
-0.001651
-0.00160094
-0.000957138
-0.00102006
-0.00111387
-0.00120337
-0.00128237
-0.0013555
-0.00142421
-0.000957852
-0.00102098
-0.00111477
-0.00120412
-0.00128292
-0.00135587
-0.00142441
-0.000958187
-0.00102142
-0.00111521
-0.00120449
-0.0012832
-0.00135606
-0.00142452
-0.000958187
-0.00102142
-0.00111521
-0.00120449
-0.0012832
-0.00135606
-0.00142452
-0.000957853
-0.00102098
-0.00111477
-0.00120412
-0.00128292
-0.00135587
-0.00142441
-0.000957139
-0.00102006
-0.00111387
-0.00120337
-0.00128237
-0.0013555
-0.00142421
-0.00114342
-0.00116697
-0.00122227
-0.00128379
-0.00134249
-0.00139969
-0.0014554
-0.00114359
-0.00116737
-0.00122272
-0.00128418
-0.00134278
-0.00139986
-0.00145547
-0.00114367
-0.00116757
-0.00122294
-0.00128438
-0.00134293
-0.00139996
-0.00145551
-0.00114367
-0.00116757
-0.00122294
-0.00128438
-0.00134293
-0.00139996
-0.00145551
-0.00114359
-0.00116737
-0.00122272
-0.00128418
-0.00134278
-0.00139986
-0.00145547
-0.00114343
-0.00116697
-0.00122227
-0.00128379
-0.00134249
-0.00139969
-0.0014554
-0.00129783
-0.0012954
-0.00132298
-0.0013614
-0.00140182
-0.00144413
-0.00148727
-0.00129761
-0.00129544
-0.00132308
-0.00136152
-0.0014019
-0.00144415
-0.00148723
-0.0012975
-0.00129546
-0.00132313
-0.0013616
-0.00140195
-0.00144417
-0.00148722
-0.0012975
-0.00129546
-0.00132313
-0.0013616
-0.00140195
-0.00144417
-0.00148722
-0.00129762
-0.00129544
-0.00132308
-0.00136152
-0.0014019
-0.00144415
-0.00148723
-0.00129784
-0.0012954
-0.00132299
-0.0013614
-0.00140182
-0.00144413
-0.00148727
-0.00142585
-0.00140305
-0.00141233
-0.00143323
-0.00145813
-0.00148716
-0.00151862
-0.00142534
-0.00140291
-0.00141208
-0.00143323
-0.00145807
-0.00148707
-0.0015185
-0.00142509
-0.00140283
-0.00141194
-0.00143326
-0.00145806
-0.00148703
-0.00151845
-0.00142509
-0.00140283
-0.00141194
-0.00143326
-0.00145806
-0.00148703
-0.00151845
-0.00142534
-0.00140291
-0.00141208
-0.00143323
-0.00145807
-0.00148707
-0.0015185
-0.00142586
-0.00140305
-0.00141233
-0.00143323
-0.00145813
-0.00148716
-0.00151862
-0.00152679
-0.00149636
-0.00149005
-0.00149694
-0.00150967
-0.00152732
-0.0015483
-0.00152623
-0.00149602
-0.00148977
-0.00149675
-0.00150951
-0.00152715
-0.00154813
-0.00152595
-0.00149585
-0.00148963
-0.00149667
-0.00150943
-0.00152708
-0.00154805
-0.00152595
-0.00149585
-0.00148963
-0.00149667
-0.00150943
-0.00152708
-0.00154805
-0.00152623
-0.00149602
-0.00148977
-0.00149675
-0.00150951
-0.00152715
-0.00154813
-0.00152679
-0.00149636
-0.00149005
-0.00149694
-0.00150968
-0.00152732
-0.0015483
-0.00160934
-0.00157294
-0.00155657
-0.00155304
-0.00155578
-0.00156379
-0.00157559
-0.00160877
-0.00157253
-0.00155624
-0.00155278
-0.00155555
-0.00156358
-0.0015754
-0.00160849
-0.00157233
-0.00155608
-0.00155266
-0.00155545
-0.00156348
-0.0015753
-0.00160849
-0.00157233
-0.00155608
-0.00155266
-0.00155545
-0.00156348
-0.0015753
-0.00160877
-0.00157253
-0.00155624
-0.00155278
-0.00155555
-0.00156358
-0.0015754
-0.00160934
-0.00157295
-0.00155657
-0.00155305
-0.00155578
-0.00156379
-0.00157559
-0.00186159
-0.00193342
-0.00200922
-0.00208684
-0.00216549
-0.00222543
-0.00221988
-0.00186087
-0.00193253
-0.00200816
-0.00208563
-0.00216416
-0.00222411
-0.00221872
-0.00186051
-0.00193209
-0.00200764
-0.00208503
-0.00216351
-0.00222346
-0.00221815
-0.00186051
-0.00193209
-0.00200764
-0.00208502
-0.00216351
-0.00222346
-0.00221815
-0.00186087
-0.00193253
-0.00200816
-0.00208562
-0.00216415
-0.0022241
-0.00221871
-0.00186158
-0.00193341
-0.00200921
-0.00208683
-0.00216548
-0.00222542
-0.00221987
-0.00182406
-0.00187998
-0.00193573
-0.00198875
-0.00203712
-0.00206451
-0.00204341
-0.00182348
-0.00187928
-0.00193492
-0.00198785
-0.00203616
-0.00206359
-0.00204266
-0.00182319
-0.00187893
-0.00193452
-0.00198739
-0.00203569
-0.00206314
-0.00204229
-0.00182319
-0.00187893
-0.00193452
-0.00198739
-0.00203568
-0.00206314
-0.00204229
-0.00182348
-0.00187928
-0.00193492
-0.00198784
-0.00203616
-0.00206359
-0.00204266
-0.00182406
-0.00187997
-0.00193572
-0.00198874
-0.00203711
-0.0020645
-0.0020434
-0.00178529
-0.00182677
-0.00186552
-0.00189892
-0.001925
-0.00193104
-0.00189178
-0.00178484
-0.00182625
-0.00186492
-0.00189828
-0.00192434
-0.00193045
-0.00189137
-0.00178461
-0.00182598
-0.00186462
-0.00189795
-0.00192401
-0.00193016
-0.00189116
-0.00178461
-0.00182598
-0.00186462
-0.00189795
-0.00192401
-0.00193015
-0.00189116
-0.00178484
-0.00182624
-0.00186492
-0.00189827
-0.00192434
-0.00193045
-0.00189136
-0.00178529
-0.00182677
-0.00186551
-0.00189891
-0.00192499
-0.00193103
-0.00189177
-0.0017477
-0.0017765
-0.00180116
-0.00181938
-0.00183057
-0.00183053
-0.00175193
-0.00174735
-0.00177611
-0.00180074
-0.00181894
-0.00183014
-0.00183015
-0.00175184
-0.00174717
-0.00177591
-0.00180052
-0.00181871
-0.00182992
-0.00182997
-0.00175179
-0.00174717
-0.00177591
-0.00180052
-0.00181871
-0.00182992
-0.00182996
-0.00175179
-0.00174735