/*--------------------------------*- C++ -*----------------------------------*\
  =========                 |
  \\      /  F ield         | OpenFOAM: The Open Source CFD Toolbox
   \\    /   O peration     | Website:  https://openfoam.org
    \\  /    A nd           | Version:  7
     \\/     M anipulation  |
\*---------------------------------------------------------------------------*/
FoamFile
{
    version     2.0;
    format      ascii;
    class       volVectorField;
    location    "3";
    object      U;
}
// * * * * * * * * * * * * * * * * * * * * * * * * * * * * * * * * * * * * * //

dimensions      [0 1 -1 0 0 0 0];

internalField   nonuniform List<vector> 
7784
(
(1.09574 -6.63794e-05 -0.000110594)
(1.09579 -5.31457e-05 -8.31484e-05)
(1.09586 -3.30436e-05 -3.85339e-05)
(1.0959 -1.88702e-05 -9.66733e-06)
(1.09591 -1.13987e-05 1.01934e-06)
(1.09591 -7.26911e-06 3.47599e-06)
(1.09591 -4.69263e-06 3.23446e-06)
(1.09576 -5.20697e-05 -8.64021e-05)
(1.09582 -4.10565e-05 -6.5731e-05)
(1.09587 -2.57932e-05 -3.04623e-05)
(1.09591 -1.59023e-05 -6.91361e-06)
(1.09591 -1.0714e-05 1.89037e-06)
(1.09591 -7.44864e-06 3.78304e-06)
(1.09591 -5.11627e-06 3.31585e-06)
(1.09577 -2.6023e-05 -7.42115e-05)
(1.09583 -2.20501e-05 -5.65323e-05)
(1.09588 -1.63109e-05 -2.5667e-05)
(1.09591 -1.19278e-05 -4.97581e-06)
(1.09591 -8.93191e-06 2.64548e-06)
(1.09591 -6.61137e-06 4.10013e-06)
(1.09591 -4.79198e-06 3.42394e-06)
(1.09578 -1.62533e-05 -6.94538e-05)
(1.09583 -1.4595e-05 -5.27455e-05)
(1.09589 -1.18872e-05 -2.34673e-05)
(1.09591 -9.39589e-06 -3.94576e-06)
(1.09592 -7.36396e-06 3.11006e-06)
(1.09591 -5.64664e-06 4.3006e-06)
(1.09591 -4.24427e-06 3.49675e-06)
(1.09578 -1.18029e-05 -6.76943e-05)
(1.09584 -1.07855e-05 -5.12805e-05)
(1.09589 -9.11244e-06 -2.25458e-05)
(1.09592 -7.45222e-06 -3.46943e-06)
(1.09592 -6.00077e-06 3.3479e-06)
(1.09592 -4.72067e-06 4.40516e-06)
(1.09591 -3.63937e-06 3.53263e-06)
(1.09578 -8.67945e-06 -6.70858e-05)
(1.09584 -7.99346e-06 -5.07532e-05)
(1.09589 -6.90345e-06 -2.21899e-05)
(1.09592 -5.78249e-06 -3.2667e-06)
(1.09592 -4.7516e-06 3.46184e-06)
(1.09592 -3.80662e-06 4.45463e-06)
(1.09592 -2.9933e-06 3.54999e-06)
(1.09578 -6.27234e-06 -6.68923e-05)
(1.09584 -5.81346e-06 -5.05716e-05)
(1.09589 -5.09019e-06 -2.2054e-05)
(1.09592 -4.32707e-06 -3.1786e-06)
(1.09592 -3.60136e-06 3.51836e-06)
(1.09592 -2.91817e-06 4.47472e-06)
(1.09592 -2.33058e-06 3.56069e-06)
(0.477069 -9.66064e-05 -0.000244428)
(0.477126 -8.02329e-05 -0.000186843)
(0.477203 -5.44523e-05 -9.7991e-05)
(0.477271 -3.38729e-05 -4.10236e-05)
(0.477312 -2.13737e-05 -1.68007e-05)
(0.477337 -1.37867e-05 -7.26951e-06)
(0.477355 -8.95602e-06 -3.63173e-06)
(0.477096 -8.47131e-05 -0.000201926)
(0.477153 -7.06636e-05 -0.000157019)
(0.477224 -4.96058e-05 -8.43597e-05)
(0.477283 -3.29483e-05 -3.61144e-05)
(0.477318 -2.22653e-05 -1.48985e-05)
(0.477342 -1.5143e-05 -6.40971e-06)
(0.477358 -1.02659e-05 -3.27199e-06)
(0.477116 -5.863e-05 -0.000177617)
(0.477173 -5.07746e-05 -0.000138988)
(0.47724 -3.87889e-05 -7.47718e-05)
(0.477294 -2.81902e-05 -3.17857e-05)
(0.477326 -2.02823e-05 -1.28455e-05)
(0.477347 -1.44494e-05 -5.36761e-06)
(0.477362 -1.01936e-05 -2.761e-06)
(0.477128 -4.21611e-05 -0.000166282)
(0.477186 -3.7533e-05 -0.000130005)
(0.477251 -3.02316e-05 -6.93064e-05)
(0.477302 -2.31853e-05 -2.88753e-05)
(0.477332 -1.74044e-05 -1.12839e-05)
(0.477351 -1.28721e-05 -4.51497e-06)
(0.477365 -9.37901e-06 -2.29787e-06)
(0.477136 -3.11655e-05 -0.000160962)
(0.477193 -2.81248e-05 -0.000125587)
(0.477259 -2.33611e-05 -6.63597e-05)
(0.477308 -1.85615e-05 -2.71252e-05)
(0.477337 -1.43967e-05 -1.02509e-05)
(0.477355 -1.09699e-05 -3.90578e-06)
(0.477368 -8.20071e-06 -1.93945e-06)
(0.47714 -2.27611e-05 -0.000158463)
(0.477198 -2.07394e-05 -0.000123441)
(0.477263 -1.76201e-05 -6.4815e-05)
(0.477313 -1.43847e-05 -2.6113e-05)
(0.47734 -1.14479e-05 -9.59479e-06)
(0.477358 -8.92949e-06 -3.4896e-06)
(0.477371 -6.80761e-06 -1.67506e-06)
(0.477143 -1.61965e-05 -0.000157256)
(0.477201 -1.48741e-05 -0.000122362)
(0.477266 -1.28429e-05 -6.39807e-05)
(0.477315 -1.06877e-05 -2.55168e-05)
(0.477343 -8.665e-06 -9.17734e-06)
(0.47736 -6.87765e-06 -3.21122e-06)
(0.477372 -5.31821e-06 -1.48457e-06)
(0.162709 -7.49515e-05 -0.000279124)
(0.162727 -6.43614e-05 -0.000232185)
(0.162767 -4.68017e-05 -0.000154224)
(0.162816 -3.13075e-05 -9.40173e-05)
(0.162856 -2.08016e-05 -5.79332e-05)
(0.162887 -1.38848e-05 -3.66627e-05)
(0.16291 -9.24941e-06 -2.40314e-05)
(0.162724 -7.21949e-05 -0.000249385)
(0.162743 -6.22673e-05 -0.000210561)
(0.162781 -4.65636e-05 -0.000142765)
(0.162826 -3.26773e-05 -8.85854e-05)
(0.162863 -2.27713e-05 -5.51122e-05)
(0.162891 -1.57906e-05 -3.51213e-05)
(0.162913 -1.08564e-05 -2.32017e-05)
(0.162738 -5.82424e-05 -0.00022745)
(0.162758 -5.10158e-05 -0.00019357)
(0.162794 -3.99795e-05 -0.000132362)
(0.162836 -2.969e-05 -8.27665e-05)
(0.16287 -2.16279e-05 -5.17973e-05)
(0.162897 -1.55369e-05 -3.32185e-05)
(0.162917 -1.10107e-05 -2.21069e-05)
(0.162749 -4.53765e-05 -0.000214325)
(0.162769 -4.03568e-05 -0.000182789)
(0.162805 -3.27614e-05 -0.00012505)
(0.162845 -2.53377e-05 -7.82355e-05)
(0.162877 -1.91179e-05 -4.90345e-05)
(0.162902 -1.4165e-05 -3.15321e-05)
(0.162921 -1.031e-05 -2.10752e-05)
(0.162755 -3.48275e-05 -0.000206634)
(0.162777 -3.13233e-05 -0.000176265)
(0.162812 -2.60807e-05 -0.000120336)
(0.162851 -2.07923e-05 -7.50986e-05)
(0.162882 -1.61453e-05 -4.69959e-05)
(0.162906 -1.22777e-05 -3.02094e-05)
(0.162924 -9.13901e-06 -2.02192e-05)
(0.16276 -2.60536e-05 -0.000202226)
(0.162781 -2.3645e-05 -0.000172441)
(0.162817 -2.00772e-05 -0.000117426)
(0.162855 -1.63904e-05 -7.30337e-05)
(0.162886 -1.30232e-05 -4.55691e-05)
(0.162909 -1.01133e-05 -2.92305e-05)
(0.162927 -7.66601e-06 -1.95555e-05)
(0.162762 -1.88131e-05 -0.000199689)
(0.162785 -1.72002e-05 -0.00017019)
(0.16282 -1.48184e-05 -0.000115635)
(0.162859 -1.23095e-05 -7.16945e-05)
(0.162888 -9.9499e-06 -4.45967e-05)
(0.162911 -7.85084e-06 -2.85315e-05)
(0.162929 -6.03456e-06 -1.90656e-05)
(1.09591 -3.06052e-06 2.21929e-06)
(1.09591 -1.98814e-06 1.14923e-06)
(1.09591 -1.2268e-06 2.25141e-07)
(1.09591 -6.36105e-07 -6.18401e-07)
(1.09591 -1.26128e-07 -1.52135e-06)
(1.09592 3.84781e-07 -2.63201e-06)
(1.09591 -3.51728e-06 2.22181e-06)
(1.09591 -2.39333e-06 1.13774e-06)
(1.09591 -1.55108e-06 2.20345e-07)
(1.09591 -8.82289e-07 -6.1192e-07)
(1.09591 -3.13484e-07 -1.50078e-06)
(1.09592 2.24034e-07 -2.60627e-06)
(1.09591 -3.44816e-06 2.25649e-06)
(1.09591 -2.43202e-06 1.15278e-06)
(1.09591 -1.63132e-06 2.29989e-07)
(1.09591 -9.81568e-07 -6.01558e-07)
(1.09591 -4.30353e-07 -1.48705e-06)
(1.09592 6.59855e-08 -2.59004e-06)
(1.09591 -3.15239e-06 2.29256e-06)
(1.09591 -2.28582e-06 1.17803e-06)
(1.09591 -1.5762e-06 2.46833e-07)
(1.09591 -9.88314e-07 -5.88944e-07)
(1.09591 -4.86837e-07 -1.47635e-06)
(1.09592 -4.17966e-08 -2.57822e-06)
(1.09591 -2.76184e-06 2.31268e-06)
(1.09591 -2.04455e-06 1.19924e-06)
(1.09591 -1.43999e-06 2.63039e-07)
(1.09591 -9.29549e-07 -5.76432e-07)
(1.09592 -4.89664e-07 -1.46524e-06)
(1.09592 -9.81317e-08 -2.56599e-06)
(1.09591 -2.30814e-06 2.32466e-06)
(1.09591 -1.73474e-06 1.21605e-06)
(1.09591 -1.2413e-06 2.76915e-07)
(1.09591 -8.17994e-07 -5.6538e-07)
(1.09592 -4.49104e-07 -1.45549e-06)
(1.09592 -1.18119e-07 -2.55457e-06)
(1.09591 -1.81723e-06 2.33311e-06)
(1.09591 -1.38086e-06 1.22922e-06)
(1.09591 -9.99617e-07 2.88129e-07)
(1.09591 -6.68369e-07 -5.56278e-07)
(1.09592 -3.76705e-07 -1.44729e-06)
(1.09592 -1.12804e-07 -2.54538e-06)
(0.477368 -5.82063e-06 -2.50214e-06)
(0.477377 -3.69862e-06 -2.28794e-06)
(0.477382 -2.15232e-06 -2.3958e-06)
(0.477386 -9.10715e-07 -2.7278e-06)
(0.477387 2.25186e-07 -3.34129e-06)
(0.477387 1.43173e-06 -4.2718e-06)
(0.47737 -6.91151e-06 -2.36151e-06)
(0.477378 -4.5318e-06 -2.22641e-06)
(0.477383 -2.74114e-06 -2.36099e-06)
(0.477386 -1.28464e-06 -2.70082e-06)
(0.477388 3.06518e-08 -3.31356e-06)
(0.477387 1.37533e-06 -4.26687e-06)
(0.477373 -7.08076e-06 -2.10226e-06)
(0.47738 -4.76153e-06 -2.08438e-06)
(0.477385 -2.96199e-06 -2.28064e-06)
(0.477388 -1.47448e-06 -2.65661e-06)
(0.477389 -1.37003e-07 -3.29571e-06)
(0.477388 1.19797e-06 -4.28924e-06)
(0.477375 -6.68664e-06 -1.83421e-06)
(0.477382 -4.59439e-06 -1.92209e-06)
(0.477386 -2.92497e-06 -2.18498e-06)
(0.477389 -1.52101e-06 -2.60571e-06)
(0.47739 -2.55292e-07 -3.28039e-06)
(0.47739 9.89231e-07 -4.31537e-06)
(0.477377 -5.97459e-06 -1.61116e-06)
(0.477384 -4.18066e-06 -1.77646e-06)
(0.477388 -2.71258e-06 -2.09473e-06)
(0.47739 -1.45724e-06 -2.55563e-06)
(0.477391 -3.1932e-07 -3.26301e-06)
(0.477391 7.90185e-07 -4.33306e-06)
(0.477379 -5.04709e-06 -1.4364e-06)
(0.477385 -3.5858e-06 -1.65615e-06)
(0.477389 -2.36278e-06 -2.01718e-06)
(0.477391 -1.30117e-06 -2.51081e-06)
(0.477392 -3.3332e-07 -3.24539e-06)
(0.477392 6.06075e-07 -4.34333e-06)
(0.477381 -3.9969e-06 -1.30469e-06)
(0.477386 -2.8737e-06 -1.56213e-06)
(0.47739 -1.91642e-06 -1.95484e-06)
(0.477392 -1.07509e-06 -2.47365e-06)
(0.477393 -3.0381e-07 -3.22954e-06)
(0.477393 4.42305e-07 -4.34858e-06)
(0.162927 -6.10155e-06 -1.62466e-05)
(0.162938 -3.878e-06 -1.10283e-05)
(0.162944 -2.19838e-06 -7.21481e-06)
(0.162947 -8.03186e-07 -4.18294e-06)
(0.162946 5.14691e-07 -1.50984e-06)
(0.162941 1.93279e-06 1.25507e-06)
(0.162929 -7.35817e-06 -1.57962e-05)
(0.162939 -4.79867e-06 -1.07793e-05)
(0.162946 -2.8192e-06 -7.0829e-06)
(0.162948 -1.16206e-06 -4.12894e-06)
(0.162947 3.83995e-07 -1.52208e-06)
(0.162942 1.99614e-06 1.15225e-06)
(0.162932 -7.64735e-06 -1.51634e-05)
(0.162941 -5.09277e-06 -1.04145e-05)
(0.162947 -3.06716e-06 -6.88337e-06)
(0.16295 -1.35105e-06 -4.04504e-06)
(0.162949 2.40177e-07 -1.53859e-06)
(0.162944 1.86888e-06 1.01331e-06)
(0.162935 -7.31919e-06 -1.45365e-05)
(0.162944 -4.96673e-06 -1.00389e-05)
(0.162949 -3.05476e-06 -6.6707e-06)
(0.162951 -1.41254e-06 -3.95092e-06)
(0.16295 1.08646e-07 -1.54801e-06)
(0.162945 1.643e-06 8.85144e-07)
(0.162937 -6.61168e-06 -1.39909e-05)
(0.162946 -4.56078e-06 -9.70053e-06)
(0.162951 -2.85531e-06 -6.47254e-06)
(0.162953 -1.37046e-06 -3.85834e-06)
(0.162951 6.88873e-09 -1.54872e-06)
(0.162947 1.3806e-06 7.83043e-07)
(0.162939 -5.63362e-06 -1.35503e-05)
(0.162947 -3.94017e-06 -9.41812e-06)
(0.162952 -2.50336e-06 -6.30199e-06)
(0.162954 -1.23691e-06 -3.77475e-06)
(0.162953 -5.94293e-08 -1.5423e-06)
(0.162948 1.10552e-06 7.07417e-07)
(0.162941 -4.48963e-06 -1.32138e-05)
(0.162949 -3.17479e-06 -9.19639e-06)
(0.162953 -2.0408e-06 -6.16462e-06)
(0.162955 -1.03095e-06 -3.70484e-06)
(0.162954 -8.97159e-08 -1.53287e-06)
(0.162949 8.36196e-07 6.54508e-07)
(1.09592 9.61766e-07 -4.08784e-06)
(1.09593 1.72273e-06 -5.90493e-06)
(1.09593 2.81109e-06 -7.36595e-06)
(1.09594 4.73897e-06 -4.88301e-06)
(1.09592 1.01143e-05 1.19712e-05)
(1.09586 2.26522e-05 5.70247e-05)
(1.09581 3.51302e-05 0.000120731)
(1.09592 7.67896e-07 -4.0604e-06)
(1.09593 1.38924e-06 -5.88936e-06)
(1.09593 2.1426e-06 -7.44607e-06)
(1.09594 3.27255e-06 -5.48136e-06)
(1.09593 6.73071e-06 9.50035e-06)
(1.09587 1.61469e-05 5.00704e-05)
(1.09582 2.6311e-05 0.000109007)
(1.09592 5.35104e-07 -4.04502e-06)
(1.09593 1.00895e-06 -5.88761e-06)
(1.09593 1.52506e-06 -7.52594e-06)
(1.09594 2.19432e-06 -5.96041e-06)
(1.09593 3.65519e-06 7.88064e-06)
(1.09587 7.32281e-06 4.61616e-05)
(1.09582 1.15422e-05 0.000102933)
(1.09592 3.68744e-07 -4.03268e-06)
(1.09593 7.6278e-07 -5.87979e-06)
(1.09593 1.17611e-06 -7.5528e-06)
(1.09594 1.70345e-06 -6.1778e-06)
(1.09593 2.603e-06 7.18438e-06)
(1.09587 4.45013e-06 4.45655e-05)
(1.09582 6.56791e-06 0.000100517)
(1.09592 2.63502e-07 -4.01658e-06)
(1.09593 6.09632e-07 -5.86146e-06)
(1.09593 9.73988e-07 -7.53971e-06)
(1.09594 1.4345e-06 -6.24405e-06)
(1.09593 2.1251e-06 6.93844e-06)
(1.09587 3.29072e-06 4.39967e-05)
(1.09582 4.56556e-06 9.96561e-05)
(1.09592 1.89485e-07 -4.00081e-06)
(1.09593 4.87994e-07 -5.84257e-06)
(1.09594 8.05533e-07 -7.51922e-06)
(1.09594 1.19309e-06 -6.25425e-06)
(1.09593 1.71915e-06 6.86545e-06)
(1.09587 2.48417e-06 4.38182e-05)
(1.09582 3.28134e-06 9.93871e-05)
(1.09592 1.33736e-07 -3.98974e-06)
(1.09593 3.7653e-07 -5.82691e-06)
(1.09594 6.36775e-07 -7.50211e-06)
(1.09594 9.44741e-07 -6.24832e-06)
(1.09593 1.33543e-06 6.85118e-06)
(1.09587 1.84717e-06 4.3773e-05)
(1.09582 2.35498e-06 9.93194e-05)
(0.477384 2.92007e-06 -5.41671e-06)
(0.477378 5.01888e-06 -5.9579e-06)
(0.477369 8.19712e-06 -2.77698e-06)
(0.477349 1.36006e-05 1.35706e-05)
(0.477302 2.46714e-05 6.40725e-05)
(0.477235 4.33162e-05 0.000169081)
(0.477217 5.80783e-05 0.000293354)
(0.477385 2.93475e-06 -5.4672e-06)
(0.47738 4.98342e-06 -6.1571e-06)
(0.47737 7.85744e-06 -3.41266e-06)
(0.477353 1.22689e-05 1.15076e-05)
(0.477311 2.09799e-05 5.76226e-05)
(0.477245 3.62596e-05 0.000153211)
(0.477222 4.90763e-05 0.000268346)
(0.477386 2.67639e-06 -5.56299e-06)
(0.477381 4.49091e-06 -6.41279e-06)
(0.477373 6.89166e-06 -4.08819e-06)
(0.477356 1.02387e-05 9.65858e-06)
(0.477316 1.56989e-05 5.29066e-05)
(0.477251 2.41166e-05 0.000143382)
(0.477226 3.13977e-05 0.000254037)
(0.477388 2.32646e-06 -5.65227e-06)
(0.477383 3.88578e-06 -6.61381e-06)
(0.477375 5.8513e-06 -4.55166e-06)
(0.477359 8.43441e-06 8.53948e-06)
(0.47732 1.21424e-05 5.03971e-05)
(0.477255 1.71919e-05 0.000138632)
(0.477229 2.15101e-05 0.000247429)
(0.477389 1.95841e-06 -5.71714e-06)
(0.477385 3.27023e-06 -6.74501e-06)
(0.477376 4.85604e-06 -4.82594e-06)
(0.477361 6.84019e-06 7.93062e-06)
(0.477323 9.45902e-06 4.91493e-05)
(0.477258 1.2718e-05 0.000136425)
(0.477232 1.54499e-05 0.000244445)
(0.47739 1.57771e-06 -5.7616e-06)
(0.477386 2.64375e-06 -6.8293e-06)
(0.477378 3.88396e-06 -4.98923e-06)
(0.477363 5.36869e-06 7.60099e-06)
(0.477325 7.19657e-06 4.85338e-05)
(0.47726 9.31396e-06 0.000135415)
(0.477234 1.10544e-05 0.000243125)
(0.477391 1.20281e-06 -5.7881e-06)
(0.477387 2.02619e-06 -6.88268e-06)
(0.477379 2.95423e-06 -5.08905e-06)
(0.477364 4.02711e-06 7.41731e-06)
(0.477326 5.28051e-06 4.82209e-05)
(0.477262 6.65489e-06 0.00013494)
(0.477235 7.76043e-06 0.000242532)
(0.162932 3.68649e-06 4.85275e-06)
(0.162916 6.10713e-06 1.10729e-05)
(0.162893 9.64238e-06 2.41156e-05)
(0.16286 1.51683e-05 5.29654e-05)
(0.162812 2.45257e-05 0.000113527)
(0.162771 3.71196e-05 0.000217142)
(0.162779 4.49057e-05 0.000324007)
(0.162933 3.8984e-06 4.59965e-06)
(0.162918 6.39267e-06 1.05207e-05)
(0.162896 9.83048e-06 2.29495e-05)
(0.162864 1.48186e-05 5.03966e-05)
(0.162818 2.29068e-05 0.000107239)
(0.162776 3.40485e-05 0.000203439)
(0.162781 4.14401e-05 0.000303529)
(0.162935 3.72094e-06 4.27415e-06)
(0.16292 6.03353e-06 9.85856e-06)
(0.162899 9.06756e-06 2.16282e-05)
(0.162868 1.31703e-05 4.77466e-05)
(0.162824 1.90261e-05 0.000101797)
(0.162781 2.65048e-05 0.000193376)
(0.162784 3.20115e-05 0.000289501)
(0.162937 3.33541e-06 3.97996e-06)
(0.162923 5.36515e-06 9.29462e-06)
(0.162902 7.90631e-06 2.05734e-05)
(0.162872 1.11658e-05 4.57911e-05)
(0.162829 1.54254e-05 9.81942e-05)
(0.162786 2.04776e-05 0.000187363)
(0.162787 2.43128e-05 0.000281541)
(0.162938 2.85934e-06 3.7446e-06)
(0.162925 4.575e-06 8.8652e-06)
(0.162904 6.63215e-06 1.98165e-05)
(0.162875 9.1487e-06 4.44832e-05)
(0.162832 1.22353e-05 9.59657e-05)
(0.162789 1.56896e-05 0.000183885)
(0.16279 1.83144e-05 0.000277082)
(0.16294 2.33797e-06 3.56779e-06)
(0.162926 3.72321e-06 8.55447e-06)
(0.162906 5.3261e-06 1.9297e-05)
(0.162877 7.20667e-06 4.36412e-05)
(0.162835 9.39391e-06 9.46316e-05)
(0.162792 1.17279e-05 0.000181929)
(0.162792 1.34898e-05 0.000274645)
(0.162941 1.80421e-06 3.4439e-06)
(0.162927 2.8627e-06 8.33736e-06)
(0.162907 4.05457e-06 1.89484e-05)
(0.162878 5.40733e-06 4.31048e-05)
(0.162836 6.91736e-06 9.38323e-05)
(0.162794 8.4692e-06 0.00018082)
(0.162794 9.62796e-06 0.000273306)
(1.09578 -4.27541e-06 -6.68346e-05)
(1.09584 -3.97797e-06 -5.05075e-05)
(1.09589 -3.50982e-06 -2.19983e-05)
(1.09592 -3.00892e-06 -3.13685e-06)
(1.09592 -2.52409e-06 3.54811e-06)
(1.09592 -2.06078e-06 4.48028e-06)
(1.09592 -1.66199e-06 3.56894e-06)
(1.09578 -2.49231e-06 -6.6818e-05)
(1.09584 -2.32358e-06 -5.04833e-05)
(1.09589 -2.05879e-06 -2.19737e-05)
(1.09592 -1.77368e-06 -3.11592e-06)
(1.09592 -1.49519e-06 3.56433e-06)
(1.09592 -1.22722e-06 4.4826e-06)
(1.09592 -9.93595e-07 3.57162e-06)
(1.09578 -8.18292e-07 -6.68137e-05)
(1.09584 -7.63325e-07 -5.04747e-05)
(1.09589 -6.77505e-07 -2.19637e-05)
(1.09592 -5.8494e-07 -3.10684e-06)
(1.09592 -4.94171e-07 3.5717e-06)
(1.09592 -4.06558e-07 4.48357e-06)
(1.09592 -3.29602e-07 3.57204e-06)
(1.09578 8.212e-07 -6.68137e-05)
(1.09584 7.66998e-07 -5.04747e-05)
(1.09589 6.81369e-07 -2.19638e-05)
(1.09592 5.88672e-07 -3.10686e-06)
(1.09592 4.97674e-07 3.57168e-06)
(1.09592 4.09791e-07 4.48356e-06)
(1.09592 3.3257e-07 3.57203e-06)
(1.09578 2.4953e-06 -6.6818e-05)
(1.09584 2.32736e-06 -5.04833e-05)
(1.09589 2.06277e-06 -2.19737e-05)
(1.09592 1.77751e-06 -3.11597e-06)
(1.09592 1.49877e-06 3.56428e-06)
(1.09592 1.23051e-06 4.48257e-06)
(1.09592 9.966e-07 3.57159e-06)
(1.09578 4.27853e-06 -6.68346e-05)
(1.09584 3.98197e-06 -5.05076e-05)
(1.09589 3.51403e-06 -2.19984e-05)
(1.09592 3.01296e-06 -3.13695e-06)
(1.09592 2.52783e-06 3.54803e-06)
(1.09592 2.06418e-06 4.48023e-06)
(1.09592 1.66506e-06 3.56889e-06)
(0.477144 -1.08564e-05 -0.00015664)
(0.477203 -1.00246e-05 -0.000121791)
(0.477268 -8.74809e-06 -6.35126e-05)
(0.477317 -7.37298e-06 -2.51604e-05)
(0.477345 -6.05358e-06 -8.91431e-06)
(0.477362 -4.86323e-06 -3.03093e-06)
(0.477374 -3.79963e-06 -1.35268e-06)
(0.477145 -6.25108e-06 -0.000156323)
(0.477204 -5.79142e-06 -0.000121489)
(0.477269 -5.08667e-06 -6.32556e-05)
(0.477318 -4.32061e-06 -2.49566e-05)
(0.477346 -3.57544e-06 -8.75857e-06)
(0.477363 -2.89367e-06 -2.92145e-06)
(0.477374 -2.27751e-06 -1.27177e-06)
(0.477146 -2.04007e-06 -0.000156187)
(0.477205 -1.89268e-06 -0.000121357)
(0.47727 -1.66724e-06 -6.31406e-05)
(0.477319 -1.42124e-06 -2.48633e-05)
(0.477346 -1.1804e-06 -8.68588e-06)
(0.477363 -9.58537e-07 -2.86959e-06)
(0.477375 -7.56985e-07 -1.23346e-06)
(0.477146 2.04598e-06 -0.000156187)
(0.477205 1.8996e-06 -0.000121357)
(0.47727 1.67424e-06 -6.31407e-05)
(0.477319 1.4279e-06 -2.48634e-05)
(0.477346 1.18658e-06 -8.68594e-06)
(0.477363 9.64203e-07 -2.86964e-06)
(0.477375 7.62137e-07 -1.23349e-06)
(0.477145 6.25712e-06 -0.000156324)
(0.477204 5.79852e-06 -0.000121489)
(0.477269 5.09385e-06 -6.32558e-05)
(0.477318 4.32742e-06 -2.49568e-05)
(0.477346 3.58173e-06 -8.75874e-06)
(0.477363 2.89941e-06 -2.92159e-06)
(0.477374 2.2827e-06 -1.27189e-06)
(0.477144 1.08627e-05 -0.00015664)
(0.477203 1.00321e-05 -0.000121791)
(0.477268 8.75565e-06 -6.35129e-05)
(0.477317 7.38012e-06 -2.51607e-05)
(0.477345 6.06012e-06 -8.91459e-06)
(0.477362 4.86914e-06 -3.03116e-06)
(0.477374 3.80491e-06 -1.35288e-06)
(0.162764 -1.27101e-05 -0.000198215)
(0.162787 -1.1683e-05 -0.000168858)
(0.162822 -1.01666e-05 -0.00011454)
(0.162861 -8.54697e-06 -7.08443e-05)
(0.16289 -6.99221e-06 -4.39565e-05)
(0.162913 -5.58003e-06 -2.80544e-05)
(0.16293 -4.3327e-06 -1.8724e-05)
(0.162765 -7.34828e-06 -0.000197393)
(0.162788 -6.77772e-06 -0.000168106)
(0.162824 -5.93508e-06 -0.000113909)
(0.162862 -5.02721e-06 -7.03416e-05)
(0.162892 -4.14421e-06 -4.35686e-05)
(0.162914 -3.3312e-06 -2.77587e-05)
(0.162931 -2.60381e-06 -1.85072e-05)
(0.162766 -2.40246e-06 -0.000197024)
(0.162789 -2.21925e-06 -0.000167766)
(0.162824 -1.94899e-06 -0.00011362)
(0.162863 -1.65666e-06 -7.01079e-05)
(0.162892 -1.37055e-06 -4.33856e-05)
(0.162915 -1.10537e-06 -2.76174e-05)
(0.162932 -8.66632e-07 -1.84022e-05)
(0.162766 2.40919e-06 -0.000197024)
(0.162789 2.22684e-06 -0.000167766)
(0.162824 1.95653e-06 -0.00011362)
(0.162863 1.66378e-06 -7.0108e-05)
(0.162892 1.37711e-06 -4.33857e-05)
(0.162915 1.11133e-06 -2.76175e-05)
(0.162932 8.72013e-07 -1.84022e-05)
(0.162765 7.35515e-06 -0.000197393)
(0.162788 6.78548e-06 -0.000168106)
(0.162824 5.94278e-06 -0.000113909)
(0.162862 5.03446e-06 -7.0342e-05)
(0.162892 4.15086e-06 -4.35689e-05)
(0.162914 3.33723e-06 -2.7759e-05)
(0.162931 2.60922e-06 -1.85075e-05)
(0.162764 1.27172e-05 -0.000198215)
(0.162787 1.16912e-05 -0.000168858)
(0.162822 1.01746e-05 -0.000114541)
(0.162861 8.55452e-06 -7.08449e-05)
(0.16289 6.99908e-06 -4.3957e-05)
(0.162913 5.58619e-06 -2.80549e-05)
(0.16293 4.33818e-06 -1.87244e-05)
(1.09591 -1.30617e-06 2.33879e-06)
(1.09591 -1.00044e-06 1.23887e-06)
(1.09591 -7.30162e-07 2.96525e-07)
(1.09591 -4.9301e-07 -5.49394e-07)
(1.09592 -2.82471e-07 -1.44109e-06)
(1.09592 -9.05596e-08 -2.53838e-06)
(1.09591 -7.8542e-07 2.34151e-06)
(1.09591 -6.04786e-07 1.24504e-06)
(1.09591 -4.4367e-07 3.02066e-07)
(1.09591 -3.0132e-07 -5.44809e-07)
(1.09592 -1.74209e-07 -1.43695e-06)
(1.09592 -5.7718e-08 -2.53369e-06)
(1.09592 -2.61188e-07 2.34252e-06)
(1.09591 -2.01529e-07 1.24801e-06)
(1.09591 -1.4808e-07 3.04806e-07)
(1.09591 -1.00684e-07 -5.42527e-07)
(1.09592 -5.82294e-08 -1.43488e-06)
(1.09592 -1.92062e-08 -2.53134e-06)
(1.09592 2.63897e-07 2.34251e-06)
(1.09591 2.04008e-07 1.248e-06)
(1.09591 1.50354e-07 3.04797e-07)
(1.09591 1.02788e-07 -5.42535e-07)
(1.09592 6.01995e-08 -1.43489e-06)
(1.09592 2.10774e-08 -2.53134e-06)
(1.09591 7.8815e-07 2.34149e-06)
(1.09591 6.07272e-07 1.24501e-06)
(1.09591 4.45943e-07 3.02041e-07)
(1.09591 3.03418e-07 -5.44831e-07)
(1.09592 1.7617e-07 -1.43696e-06)
(1.09592 5.95784e-08 -2.5337e-06)
(1.09591 1.30893e-06 2.33875e-06)
(1.09591 1.00294e-06 1.23883e-06)
(1.09591 7.3243e-07 2.96486e-07)
(1.09591 4.95093e-07 -5.49429e-07)
(1.09592 2.84412e-07 -1.44112e-06)
(1.09592 9.23969e-08 -2.5384e-06)
(0.477382 -2.88342e-06 -1.21114e-06)
(0.477387 -2.0909e-06 -1.49352e-06)
(0.477391 -1.40654e-06 -1.9084e-06)
(0.477393 -7.99484e-07 -2.44534e-06)
(0.477394 -2.40555e-07 -3.21685e-06)
(0.477393 2.99501e-07 -4.35116e-06)
(0.477383 -1.73846e-06 -1.15187e-06)
(0.477388 -1.26741e-06 -1.44895e-06)
(0.477391 -8.57263e-07 -1.87775e-06)
(0.477393 -4.9122e-07 -2.42636e-06)
(0.477394 -1.53168e-07 -3.20808e-06)
(0.477394 1.73329e-07 -4.35246e-06)
(0.477383 -5.79246e-07 -1.12321e-06)
(0.477388 -4.23167e-07 -1.42708e-06)
(0.477392 -2.86697e-07 -1.86256e-06)
(0.477394 -1.64528e-07 -2.41687e-06)
(0.477394 -5.15111e-08 -3.20364e-06)
(0.477394 5.76471e-08 -4.35305e-06)
(0.477383 5.83917e-07 -1.12325e-06)
(0.477388 4.27404e-07 -1.42711e-06)
(0.477392 2.9057e-07 -1.86259e-06)
(0.477394 1.68102e-07 -2.4169e-06)
(0.477394 5.48553e-08 -3.20366e-06)
(0.477394 -5.44619e-08 -4.35307e-06)
(0.477383 1.74314e-06 -1.15196e-06)
(0.477388 1.27165e-06 -1.44905e-06)
(0.477391 8.61126e-07 -1.87784e-06)
(0.477393 4.94779e-07 -2.42644e-06)
(0.477394 1.56493e-07 -3.20814e-06)
(0.477394 -1.70158e-07 -4.35252e-06)
(0.477382 2.88814e-06 -1.21131e-06)
(0.477387 2.09514e-06 -1.49368e-06)
(0.477391 1.41038e-06 -1.90854e-06)
(0.477393 8.03012e-07 -2.44547e-06)
(0.477394 2.4385e-07 -3.21698e-06)
(0.477393 -2.96355e-07 -4.35125e-06)
(0.162942 -3.25252e-06 -1.29726e-05)
(0.16295 -2.31869e-06 -9.03403e-06)
(0.162954 -1.50341e-06 -6.06205e-06)
(0.162956 -7.71681e-07 -3.65111e-06)
(0.162955 -8.82615e-08 -1.5233e-06)
(0.16295 5.81242e-07 6.19125e-07)
(0.162943 -1.96594e-06 -1.28172e-05)
(0.162951 -1.40885e-06 -8.92805e-06)
(0.162955 -9.18543e-07 -5.99419e-06)
(0.162956 -4.76183e-07 -3.61485e-06)
(0.162955 -6.2408e-08 -1.51583e-06)
(0.162951 3.41812e-07 5.97428e-07)
(0.162943 -6.55958e-07 -1.27412e-05)
(0.162951 -4.71035e-07 -8.87583e-06)
(0.162955 -3.07623e-07 -5.9605e-06)
(0.162957 -1.59795e-07 -3.59664e-06)
(0.162955 -2.14059e-08 -1.51182e-06)
(0.162951 1.13631e-07 5.8709e-07)
(0.162943 6.60798e-07 -1.27412e-05)
(0.162951 4.75393e-07 -8.8759e-06)
(0.162955 3.1157e-07 -5.96056e-06)
(0.162957 1.63401e-07 -3.5967e-06)
(0.162955 2.474e-08 -1.51187e-06)
(0.162951 -1.10489e-07 5.87042e-07)
(0.162943 1.97079e-06 -1.28174e-05)
(0.162951 1.4132e-06 -8.92825e-06)
(0.162955 9.22478e-07 -5.99437e-06)
(0.162956 4.7977e-07 -3.61501e-06)
(0.162955 6.57127e-08 -1.51598e-06)
(0.162951 -3.38677e-07 5.97286e-07)
(0.162942 3.2574e-06 -1.29729e-05)
(0.16295 2.32304e-06 -9.03435e-06)
(0.162954 1.50732e-06 -6.06235e-06)
(0.162956 7.75245e-07 -3.65138e-06)
(0.162955 9.15851e-08 -1.52355e-06)
(0.16295 -5.78109e-07 6.18886e-07)
(1.09592 8.98048e-08 -3.98172e-06)
(1.09593 2.68919e-07 -5.81523e-06)
(1.09594 4.61479e-07 -7.49007e-06)
(1.09594 6.84684e-07 -6.24062e-06)
(1.09593 9.56018e-07 6.85283e-06)
(1.09587 1.28862e-06 4.37671e-05)
(1.09582 1.60601e-06 9.9311e-05)
(1.09592 5.22508e-08 -3.9766e-06)
(1.09593 1.61973e-07 -5.80799e-06)
(1.09594 2.79846e-07 -7.48293e-06)
(1.09594 4.14702e-07 -6.23532e-06)
(1.09593 5.74438e-07 6.85644e-06)
(1.09587 7.62825e-07 4.37696e-05)
(1.09583 9.38132e-07 9.93155e-05)
(1.09592 1.77169e-08 -3.97414e-06)
(1.09593 5.46413e-08 -5.80462e-06)
(1.09594 9.42687e-08 -7.47971e-06)
(1.09594 1.3932e-07 -6.23282e-06)
(1.09593 1.92031e-07 6.85853e-06)
(1.09587 2.53106e-07 4.37719e-05)
(1.09583 3.09219e-07 9.93195e-05)
(1.09592 -1.59224e-08 -3.97414e-06)
(1.09593 -5.29028e-08 -5.80462e-06)
(1.09594 -9.25679e-08 -7.47971e-06)
(1.09594 -1.37637e-07 -6.23283e-06)
(1.09593 -1.90334e-07 6.85852e-06)
(1.09587 -2.51351e-07 4.37719e-05)
(1.09583 -3.07539e-07 9.93195e-05)
(1.09592 -5.04649e-08 -3.97661e-06)
(1.09593 -1.60237e-07 -5.80799e-06)
(1.09594 -2.78141e-07 -7.48294e-06)
(1.09594 -4.13004e-07 -6.23534e-06)
(1.09593 -5.72719e-07 6.85641e-06)
(1.09587 -7.61045e-07 4.37696e-05)
(1.09583 -9.3644e-07 9.93155e-05)
(1.09592 -8.80363e-08 -3.98173e-06)
(1.09593 -2.67191e-07 -5.81524e-06)
(1.09594 -4.59765e-07 -7.49009e-06)
(1.09594 -6.82957e-07 -6.24065e-06)
(1.09593 -9.54248e-07 6.85278e-06)
(1.09587 -1.28678e-06 4.3767e-05)
(1.09582 -1.60429e-06 9.93109e-05)
(0.477392 8.44895e-07 -5.80448e-06)
(0.477387 1.42807e-06 -6.91626e-06)
(0.47738 2.07149e-06 -5.15068e-06)
(0.477365 2.79674e-06 7.31168e-06)
(0.477327 3.61421e-06 4.80542e-05)
(0.477263 4.47722e-06 0.000134704)
(0.477236 5.15891e-06 0.000242252)
(0.477392 5.01116e-07 -5.8143e-06)
(0.477388 8.48586e-07 -6.9365e-06)
(0.47738 1.22692e-06 -5.18709e-06)
(0.477365 1.64629e-06 7.25233e-06)
(0.477328 2.10845e-06 4.79656e-05)
(0.477263 2.585e-06 0.000134586)
(0.477236 2.95685e-06 0.000242117)
(0.477392 1.66929e-07 -5.81899e-06)
(0.477388 2.82286e-07 -6.94615e-06)
(0.477381 4.07108e-07 -5.20417e-06)
(0.477366 5.44334e-07 7.22529e-06)
(0.477328 6.93933e-07 4.79266e-05)
(0.477264 8.46478e-07 0.000134536)
(0.477236 9.64717e-07 0.000242061)
(0.477392 -1.63853e-07 -5.819e-06)
(0.477388 -2.79269e-07 -6.94617e-06)
(0.477381 -4.04102e-07 -5.20419e-06)
(0.477366 -5.41292e-07 7.22526e-06)
(0.477328 -6.90775e-07 4.79265e-05)
(0.477264 -8.43115e-07 0.000134536)
(0.477236 -9.6143e-07 0.000242061)
(0.477392 -4.98044e-07 -5.81435e-06)
(0.477388 -8.45556e-07 -6.93655e-06)
(0.47738 -1.22388e-06 -5.18716e-06)
(0.477365 -1.64319e-06 7.25223e-06)
(0.477328 -2.10522e-06 4.79655e-05)
(0.477263 -2.58156e-06 0.000134586)
(0.477236 -2.95352e-06 0.000242117)
(0.477392 -8.41825e-07 -5.80456e-06)
(0.477387 -1.42501e-06 -6.91635e-06)
(0.47738 -2.06838e-06 -5.15081e-06)
(0.477365 -2.79352e-06 7.3115e-06)
(0.477327 -3.61081e-06 4.8054e-05)
(0.477263 -4.47362e-06 0.000134704)
(0.477236 -5.15548e-06 0.000242251)
(0.162942 1.27468e-06 3.35992e-06)
(0.162928 2.0197e-06 8.19149e-06)
(0.162908 2.84112e-06 1.87211e-05)
(0.16288 3.75081e-06 4.27682e-05)
(0.162837 4.73698e-06 9.3353e-05)
(0.162795 5.72337e-06 0.000180184)
(0.162795 6.45211e-06 0.000272558)
(0.162942 7.57996e-07 3.30783e-06)
(0.162929 1.20022e-06 8.10176e-06)
(0.162909 1.68105e-06 1.8584e-05)
(0.16288 2.20495e-06 4.25705e-05)
(0.162838 2.76229e-06 9.30801e-05)
(0.162795 3.31016e-06 0.000179833)
(0.162795 3.7118e-06 0.000272153)
(0.162943 2.52286e-07 3.28288e-06)
(0.162929 3.98836e-07 8.05902e-06)
(0.162909 5.57101e-07 1.85195e-05)
(0.162881 7.28166e-07 4.24788e-05)
(0.162838 9.08502e-07 9.29559e-05)
(0.162796 1.08431e-06 0.000179677)
(0.162795 1.21262e-06 0.000271974)
(0.162943 -2.49269e-07 3.28284e-06)
(0.162929 -3.95883e-07 8.05897e-06)
(0.162909 -5.54157e-07 1.85194e-05)
(0.162881 -7.25174e-07 4.24787e-05)
(0.162838 -9.05355e-07 9.29558e-05)
(0.162796 -1.08089e-06 0.000179676)
(0.162795 -1.20923e-06 0.000271974)
(0.162942 -7.54972e-07 3.30768e-06)
(0.162929 -1.19724e-06 8.10159e-06)
(0.162909 -1.67806e-06 1.85838e-05)
(0.16288 -2.20189e-06 4.25703e-05)
(0.162838 -2.75906e-06 9.30798e-05)
(0.162795 -3.30666e-06 0.000179833)
(0.162795 -3.70838e-06 0.000272153)
(0.162942 -1.27164e-06 3.35966e-06)
(0.162928 -2.01667e-06 8.19119e-06)
(0.162908 -2.83803e-06 1.87207e-05)
(0.16288 -3.74761e-06 4.27678e-05)
(0.162837 -4.73358e-06 9.33524e-05)
(0.162795 -5.71972e-06 0.000180184)
(0.162795 -6.44861e-06 0.000272557)
(1.09578 6.27566e-06 -6.68924e-05)
(1.09584 5.81781e-06 -5.05717e-05)
(1.09589 5.09481e-06 -2.20542e-05)
(1.09592 4.33146e-06 -3.17875e-06)
(1.09592 3.60536e-06 3.51823e-06)
(1.09592 2.92174e-06 4.47464e-06)
(1.09592 2.33374e-06 3.56061e-06)
(1.09578 8.68302e-06 -6.70858e-05)
(1.09584 7.99828e-06 -5.07533e-05)
(1.09589 6.90869e-06 -2.219e-05)
(1.09592 5.78743e-06 -3.26689e-06)
(1.09592 4.75599e-06 3.46165e-06)
(1.09592 3.81044e-06 4.45449e-06)
(1.09592 2.99658e-06 3.54989e-06)
(1.09578 1.18066e-05 -6.76943e-05)
(1.09584 1.07909e-05 -5.12806e-05)
(1.09589 9.11853e-06 -2.25459e-05)
(1.09592 7.45793e-06 -3.46965e-06)
(1.09592 6.00568e-06 3.34765e-06)
(1.09592 4.72478e-06 4.40497e-06)
(1.09591 3.64278e-06 3.53249e-06)
(1.09578 1.6257e-05 -6.94535e-05)
(1.09583 1.46008e-05 -5.27452e-05)
(1.09589 1.18942e-05 -2.34673e-05)
(1.09591 9.40259e-06 -3.94598e-06)
(1.09592 7.36951e-06 3.10976e-06)
(1.09591 5.65106e-06 4.30034e-06)
(1.09591 4.24779e-06 3.49656e-06)
(1.09577 2.60258e-05 -7.42107e-05)
(1.09583 2.20554e-05 -5.65313e-05)
(1.09588 1.63182e-05 -2.56665e-05)
(1.09591 1.19351e-05 -4.97594e-06)
(1.09591 8.93795e-06 2.64511e-06)
(1.09591 6.61597e-06 4.09979e-06)
(1.09591 4.79547e-06 3.42368e-06)
(1.09576 5.20716e-05 -8.64003e-05)
(1.09582 4.10603e-05 -6.5729e-05)
(1.09587 2.57992e-05 -3.04611e-05)
(1.09591 1.59089e-05 -6.91341e-06)
(1.09591 1.07195e-05 1.89002e-06)
(1.09591 7.45283e-06 3.78263e-06)
(1.09591 5.11935e-06 3.31555e-06)
(1.09574 6.638e-05 -0.000110592)
(1.09579 5.31474e-05 -8.31459e-05)
(1.09586 3.3047e-05 -3.85321e-05)