/*--------------------------------*- C++ -*----------------------------------*\
  =========                 |
  \\      /  F ield         | OpenFOAM: The Open Source CFD Toolbox
   \\    /   O peration     | Website:  https://openfoam.org
    \\  /    A nd           | Version:  7
     \\/     M anipulation  |
\*---------------------------------------------------------------------------*/
FoamFile
{
    version     2.0;
    format      ascii;
    class       volScalarField;
    location    "4";
    object      p;
}
// * * * * * * * * * * * * * * * * * * * * * * * * * * * * * * * * * * * * * //

dimensions      [0 2 -2 0 0 0 0];

internalField   nonuniform List<scalar> 
7784
(
7.09046e-12
-0.000121552
-0.000290952
-0.00043344
-0.000537766
-0.000614051
-0.000672425
-1.79483e-05
-0.000147433
-0.000312165
-0.00044541
-0.000543497
-0.000616716
-0.000673587
-5.38762e-05
-0.000178594
-0.000333044
-0.000457366
-0.000550041
-0.000620111
-0.000675465
-7.95782e-05
-0.000199832
-0.0003479
-0.000466818
-0.00055584
-0.000623584
-0.000677429
-9.65694e-05
-0.00021429
-0.000358685
-0.000474215
-0.000560668
-0.000626604
-0.000679214
-0.000108027
-0.000224291
-0.00036644
-0.000479787
-0.000564493
-0.000629219
-0.000680766
-0.000115532
-0.000230954
-0.000371776
-0.000483779
-0.000567351
-0.000631223
-0.000682013
-0.000147867
-0.000264542
-0.000399601
-0.000502607
-0.000578135
-0.000637273
-0.000686097
-0.000161484
-0.00028351
-0.000413726
-0.000510029
-0.000581446
-0.000638614
-0.00068637
-0.000183826
-0.000302296
-0.000425773
-0.000516736
-0.000585175
-0.000640805
-0.000687255
-0.000199966
-0.000315022
-0.000434416
-0.000522241
-0.000588666
-0.000642929
-0.000688383
-0.000211169
-0.000324292
-0.000441251
-0.000526956
-0.000591806
-0.000644932
-0.000689516
-0.000219262
-0.000331258
-0.000446624
-0.00053082
-0.000594459
-0.000646587
-0.000690555
-0.000224872
-0.000336206
-0.000450574
-0.000533771
-0.000596557
-0.000647969
-0.000691442
-0.000289283
-0.000379136
-0.000477124
-0.000552972
-0.000611721
-0.000660141
-0.000701575
-0.000296951
-0.000389055
-0.000483802
-0.000556129
-0.000612796
-0.000660203
-0.000701098
-0.000309075
-0.000399228
-0.000490388
-0.000559836
-0.000614812
-0.00066122
-0.000701393
-0.000318653
-0.000406957
-0.00049579
-0.000563347
-0.000617044
-0.000662556
-0.000702051
-0.00032587
-0.000413062
-0.000500372
-0.000566538
-0.000619175
-0.0006639
-0.000702782
-0.000331369
-0.000417897
-0.00050416
-0.000569287
-0.000621078
-0.000665134
-0.000703506
-0.000335332
-0.000421476
-0.000507062
-0.000571472
-0.000622643
-0.000666187
-0.000704151
-0.000719217
-0.00075878
-0.000794573
-0.000829136
-0.000864746
-0.00090383
-0.000719459
-0.000758533
-0.000794053
-0.000828414
-0.000863757
-0.000902329
-0.000720211
-0.000758597
-0.000793701
-0.000827738
-0.000862738
-0.000900875
-0.000721153
-0.000758854
-0.000793498
-0.000827152
-0.000861759
-0.000899412
-0.000722079
-0.000759174
-0.000793368
-0.000826637
-0.000860855
-0.000898053
-0.000722922
-0.000759504
-0.00079329
-0.000826207
-0.000860073
-0.000896876
-0.000723625
-0.000759792
-0.000793245
-0.000825865
-0.000859438
-0.000895919
-0.000727547
-0.000764212
-0.000798292
-0.000831773
-0.000866534
-0.000904648
-0.000727247
-0.000763614
-0.000797564
-0.000830946
-0.000865552
-0.000903409
-0.000727434
-0.000763382
-0.000797044
-0.000830181
-0.000864511
-0.000901951
-0.00072789
-0.000763387
-0.000796695
-0.000829519
-0.000863512
-0.000900519
-0.000728417
-0.000763471
-0.000796426
-0.00082893
-0.000862586
-0.000899192
-0.000728944
-0.000763597
-0.000796229
-0.000828435
-0.000861784
-0.000898037
-0.000729418
-0.00076374
-0.000796092
-0.000828041
-0.00086113
-0.000897095
-0.000737792
-0.000770542
-0.000801487
-0.000832154
-0.000864094
-0.000898683
-0.000737036
-0.000769681
-0.000800607
-0.000831239
-0.000862988
-0.000897545
-0.000736874
-0.00076924
-0.000799977
-0.000830443
-0.000862016
-0.000896216
-0.000737046
-0.000769067
-0.000799535
-0.000829757
-0.000861062
-0.000894903
-0.000737318
-0.000768992
-0.000799181
-0.000829146
-0.000860174
-0.00089368
-0.000737636
-0.000768989
-0.000798913
-0.00082863
-0.0008594
-0.000892609
-0.000737947
-0.000769028
-0.000798718
-0.000828219
-0.000858768
-0.000891731
-0.000949068
-0.00100484
-0.00107629
-0.00116833
-0.00128187
-0.00138848
-0.00135244
-0.000947136
-0.00100196
-0.00107176
-0.00116087
-0.00127107
-0.00138158
-0.00135596
-0.000944909
-0.000998604
-0.00106668
-0.00115308
-0.00125942
-0.00136591
-0.00133851
-0.000942762
-0.000995481
-0.00106213
-0.00114651
-0.00125018
-0.00135393
-0.00132501
-0.000940818
-0.00099274
-0.0010583
-0.00114123
-0.00124318
-0.00134534
-0.00131559
-0.000939156
-0.00099046
-0.00105523
-0.00113718
-0.00123801
-0.00133919
-0.00130892
-0.000937821
-0.000988668
-0.00105289
-0.0011342
-0.00123435
-0.00133494
-0.00130436
-0.000948557
-0.00100124
-0.00106546
-0.00114236
-0.00123191
-0.00131569
-0.00130655
-0.000946868
-0.000998746
-0.00106162
-0.00113602
-0.00122236
-0.00130857
-0.00130675
-0.000944774
-0.000995701
-0.00105722
-0.00112964
-0.00121291
-0.00129656
-0.00129456
-0.000942744
-0.000992853
-0.00105324
-0.00112417
-0.0012056
-0.00128765
-0.00128514
-0.000940897
-0.000990326
-0.00104983
-0.00111968
-0.00119991
-0.00128108
-0.00127834
-0.000939309
-0.000988198
-0.00104705
-0.00111611
-0.00119554
-0.00127611
-0.00127319
-0.000938027
-0.000986508
-0.00104489
-0.00111344
-0.00119233
-0.00127252
-0.00126947
-0.000937957
-0.000983787
-0.00103725
-0.00109826
-0.00116492
-0.00122354
-0.00122626
-0.0009365
-0.000981743
-0.00103426
-0.00109352
-0.00115805
-0.00121753
-0.00122282
-0.000934672
-0.000979182
-0.00103069
-0.00108852
-0.00115106
-0.00120926
-0.00121504
-0.000932868
-0.000976699
-0.00102736
-0.00108414
-0.00114547
-0.0012029
-0.0012089
-0.000931213
-0.00097448
-0.00102444
-0.00108044
-0.00114097
-0.00119796
-0.00120413
-0.00092978
-0.0009726
-0.00102203
-0.00107744
-0.0011374
-0.00119407
-0.00120032
-0.000928615
-0.0009711
-0.00102013
-0.00107514
-0.00113472
-0.00119117
-0.00119745
-0.000120255
-0.000235222
-0.000375295
-0.000486501
-0.000569364
-0.000632665
-0.00068294
-0.00012302
-0.000237759
-0.000377434
-0.000488193
-0.000570644
-0.000633597
-0.000683551
-0.000124298
-0.000238944
-0.000378445
-0.000489005
-0.000571265
-0.000634054
-0.000683854
-0.000124298
-0.000238944
-0.000378445
-0.000489005
-0.000571265
-0.000634054
-0.000683854
-0.00012302
-0.000237759
-0.000377434
-0.000488194
-0.000570644
-0.000633597
-0.000683551
-0.000120254
-0.000235222
-0.000375295
-0.000486501
-0.000569364
-0.000632665
-0.00068294
-0.000228542
-0.000339519
-0.000453302
-0.000535873
-0.000598095
-0.000649018
-0.000692128
-0.000230746
-0.000341547
-0.000455012
-0.000537219
-0.000599098
-0.000649715
-0.000692591
-0.000231779
-0.00034251
-0.000455834
-0.000537874
-0.000599592
-0.000650063
-0.000692824
-0.000231779
-0.00034251
-0.000455834
-0.000537874
-0.000599592
-0.000650063
-0.000692824
-0.000230746
-0.000341547
-0.000455012
-0.000537219
-0.000599098
-0.000649716
-0.000692591
-0.000228542
-0.000339519
-0.000453303
-0.000535874
-0.000598096
-0.000649018
-0.000692128
-0.000338003
-0.000423948
-0.000509129
-0.000573074
-0.000623821
-0.000666999
-0.000704662
-0.000339639
-0.000425494
-0.000510448
-0.000574118
-0.000624602
-0.000667547
-0.000705014
-0.000340415
-0.000426236
-0.00051109
-0.000574631
-0.00062499
-0.000667823
-0.000705192
-0.000340415
-0.000426236
-0.00051109
-0.000574631
-0.00062499
-0.000667823
-0.000705192
-0.000339639
-0.000425494
-0.000510449
-0.000574118
-0.000624602
-0.000667548
-0.000705014
-0.000338003
-0.000423948
-0.000509129
-0.000573075
-0.000623821
-0.000667
-0.000704663
-0.000724157
-0.000759989
-0.000793215
-0.000825611
-0.000858959
-0.000895199
-0.000724517
-0.000760145
-0.000793201
-0.000825443
-0.00085864
-0.00089472
-0.000724698
-0.000760226
-0.000793195
-0.00082536
-0.00085848
-0.000894481
-0.000724698
-0.000760226
-0.000793195
-0.000825359
-0.000858479
-0.000894481
-0.000724517
-0.000760144
-0.0007932
-0.000825442
-0.000858638
-0.000894718
-0.000724157
-0.000759989
-0.000793214
-0.000825609
-0.000858956
-0.000895196
-0.0007298
-0.000763891
-0.000796003
-0.000827749
-0.000860637
-0.000896384
-0.000730062
-0.000763983
-0.000795947
-0.000827556
-0.000860308
-0.000895909
-0.000730194
-0.000764029
-0.00079592
-0.00082746
-0.000860143
-0.000895673
-0.000730194
-0.000764029
-0.00079592
-0.00082746
-0.000860143
-0.000895672
-0.000730062
-0.000763983
-0.000795946
-0.000827555
-0.000860307
-0.000895908
-0.0007298
-0.00076389
-0.000796003
-0.000827748
-0.000860635
-0.000896381
-0.000738207
-0.00076908
-0.000798584
-0.000827913
-0.000858288
-0.000891065
-0.000738391
-0.000769122
-0.000798499
-0.000827711
-0.000857968
-0.000890618
-0.000738486
-0.000769145
-0.000798458
-0.00082761
-0.000857807
-0.000890395
-0.000738486
-0.000769145
-0.000798458
-0.00082761
-0.000857807
-0.000890394
-0.000738391
-0.000769122
-0.000798499
-0.00082771
-0.000857967
-0.000890617
-0.000738208
-0.000769081
-0.000798584
-0.000827913
-0.000858287
-0.000891062
-0.000936828
-0.000987355
-0.00105121
-0.00113212
-0.00123186
-0.00133213
-0.00130137
-0.000936171
-0.000986499
-0.00105014
-0.0011308
-0.00123032
-0.00133041
-0.00129957
-0.000935845
-0.000986076
-0.00104961
-0.00113017
-0.00122959
-0.00132959
-0.00129871
-0.000935844
-0.000986075
-0.00104961
-0.00113017
-0.00122958
-0.00132959
-0.00129871
-0.000936168
-0.000986495
-0.00105013
-0.0011308
-0.00123032
-0.0013304
-0.00129956
-0.000936823
-0.000987349
-0.00105121
-0.00113211
-0.00123186
-0.00133212
-0.00130136
-0.000937068
-0.000985262
-0.00104333
-0.00111154
-0.00119011
-0.00127007
-0.00126694
-0.000936433
-0.000984446
-0.00104232
-0.00111032
-0.00118872
-0.00126855
-0.00126537
-0.000936116
-0.000984042
-0.00104183
-0.00110973
-0.00118804
-0.00126781
-0.00126463
-0.000936115
-0.000984041
-0.00104183
-0.00110973
-0.00118804
-0.00126781
-0.00126462
-0.00093643
-0.000984443
-0.00104232
-0.00111032
-0.00118871
-0.00126854
-0.00126537
-0.000937064
-0.000985257
-0.00104333
-0.00111153
-0.00119011
-0.00127006
-0.00126693
-0.000927738
-0.000969985
-0.00101875
-0.00107348
-0.00113283
-0.00118914
-0.00119545
-0.000927154
-0.000969247
-0.00101784
-0.00107242
-0.00113162
-0.00118786
-0.00119418
-0.000926861
-0.00096888
-0.00101739
-0.00107189
-0.00113103
-0.00118723
-0.00119356
-0.000926861
-0.000968879
-0.00101739
-0.00107189
-0.00113103
-0.00118723
-0.00119356
-0.000927151
-0.000969244
-0.00101784
-0.00107241
-0.00113161
-0.00118785
-0.00119417
-0.000927735
-0.000969981
-0.00101874
-0.00107348
-0.00113282
-0.00118913
-0.00119544
-0.000115531
-0.000230953
-0.000371775
-0.000483779
-0.000567351
-0.000631223
-0.000682013
-0.000108025
-0.000224289
-0.000366439
-0.000479787
-0.000564493
-0.000629219
-0.000680766
-9.65644e-05
-0.000214286
-0.000358683
-0.000474214
-0.000560668
-0.000626604
-0.000679215
-7.957e-05
-0.000199826
-0.000347897
-0.000466817
-0.000555841
-0.000623587
-0.000677431
-5.38635e-05
-0.000178585
-0.000333041
-0.000457365
-0.000550043
-0.000620116
-0.000675469
-1.79324e-05
-0.000147422
-0.000312163
-0.000445411
-0.000543501
-0.000616721
-0.000673592
1.40065e-08
-0.000121543
-0.000290953
-0.000433447
-0.000537774
-0.00061406
-0.000672433
-0.000224871
-0.000336205
-0.000450574
-0.000533771
-0.000596558
-0.000647971
-0.000691443
-0.00021926
-0.000331256
-0.000446623
-0.000530821
-0.00059446
-0.000646588
-0.000690557
-0.000211164
-0.000324288
-0.00044125
-0.000526957
-0.000591807
-0.000644934
-0.000689518
-0.000199955
-0.000315015
-0.000434413
-0.000522241
-0.000588668
-0.00064293
-0.000688386
-0.000183809
-0.000302284
-0.000425769
-0.000516736
-0.000585177
-0.000640808
-0.00068726
-0.000161461
-0.000283494
-0.000413722
-0.000510031
-0.000581451
-0.000638621
-0.000686378
-0.000147844
-0.000264527
-0.000399601
-0.000502614
-0.000578145
-0.000637285
-0.000686109
-0.000335332
-0.000421475
-0.000507063
-0.000571473
-0.000622644
-0.000666188
-0.000704152
-0.000331367
-0.000417895
-0.000504159
-0.000569287
-0.000621079
-0.000665136
-0.000703509
-0.000325865
-0.000413059
-0.000500371
-0.000566538
-0.000619177
-0.000663903
-0.000702785
-0.000318643
-0.000406951
-0.000495788
-0.000563348
-0.000617047
-0.00066256
-0.000702055
-0.000309057
-0.000399217
-0.000490385
-0.000559836
-0.000614815
-0.000661225
-0.000701399
-0.000296926
-0.000389041
-0.0004838
-0.000556131
-0.000612803
-0.000660211
-0.000701107
-0.000289259
-0.000379124
-0.000477126
-0.000552981
-0.000611733
-0.000660154
-0.000701589
-0.000723625
-0.000759791
-0.000793244
-0.000825863
-0.000859434
-0.000895914
-0.000722922
-0.000759504
-0.000793289
-0.000826204
-0.000860069
-0.00089687
-0.000722079
-0.000759173
-0.000793366
-0.000826634
-0.00086085
-0.000898047
-0.000721155
-0.000758855
-0.000793497
-0.00082715
-0.000861754
-0.000899405
-0.000720214
-0.000758599
-0.000793701
-0.000827737
-0.000862735
-0.000900869
-0.000719464
-0.000758538
-0.000794056
-0.000828415
-0.000863756
-0.000902325
-0.000719225
-0.000758788
-0.000794579
-0.00082914
-0.000864747
-0.000903828
-0.000729419
-0.00076374
-0.000796091
-0.00082804
-0.000861128
-0.000897091
-0.000728946
-0.000763597
-0.000796228
-0.000828433
-0.000861781
-0.000898032
-0.000728419
-0.000763472
-0.000796425
-0.000828929
-0.000862583
-0.000899187
-0.000727894
-0.000763389
-0.000796695
-0.000829518
-0.000863508
-0.000900513
-0.000727439
-0.000763386
-0.000797046
-0.000830182
-0.000864509
-0.000901946
-0.000727254
-0.00076362
-0.000797569
-0.000830948
-0.000865551
-0.000903406
-0.000727558
-0.000764221
-0.0007983
-0.000831779
-0.000866538
-0.000904648
-0.000737948
-0.000769028
-0.000798718
-0.000828218
-0.000858766
-0.000891728
-0.000737638
-0.000768991
-0.000798913
-0.000828629
-0.000859398
-0.000892605
-0.000737321
-0.000768994
-0.000799182
-0.000829145
-0.000860172
-0.000893676
-0.00073705
-0.000769069
-0.000799537
-0.000829757
-0.00086106
-0.000894899
-0.000736879
-0.000769244
-0.00079998
-0.000830444
-0.000862014
-0.000896212
-0.000737044
-0.000769688
-0.000800612
-0.000831241
-0.000862984
-0.000897543
-0.000737804
-0.000770552
-0.000801495
-0.000832162
-0.000864104
-0.000898684
-0.000937815
-0.00098866
-0.00105288
-0.00113418
-0.00123434
-0.00133493
-0.00130434
-0.000939148
-0.000990449
-0.00105522
-0.00113716
-0.001238
-0.00133917
-0.0013089
-0.000940809
-0.000992728
-0.00105828
-0.00114121
-0.00124315
-0.00134532
-0.00131557
-0.000942753
-0.000995468
-0.00106212
-0.00114649
-0.00125015
-0.0013539
-0.00132498
-0.000944899
-0.00099859
-0.00106666
-0.00115305
-0.00125939
-0.00136587
-0.00133847
-0.000947127
-0.00100194
-0.00107174
-0.00116085
-0.00127104
-0.00138154
-0.00135591
-0.000949062
-0.00100483
-0.00107628
-0.00116831
-0.00128184
-0.00138844
-0.00135239
-0.000938021
-0.000986501
-0.00104488
-0.00111342
-0.00119232
-0.00127251
-0.00126946
-0.000939302
-0.000988189
-0.00104704
-0.0011161
-0.00119552
-0.0012761
-0.00127317
-0.000940889
-0.000990315
-0.00104982
-0.00111966
-0.00119989
-0.00128106
-0.00127832
-0.000942736
-0.000992841
-0.00105322
-0.00112416
-0.00120558
-0.00128763
-0.00128511
-0.000944765
-0.000995689
-0.0010572
-0.00112962
-0.00121288
-0.00129653
-0.00129452
-0.000946861
-0.000998735
-0.00106161
-0.001136
-0.00122233
-0.00130854
-0.00130671
-0.000948553
-0.00100123
-0.00106545
-0.00114234
-0.00123189
-0.00131566
-0.00130651
-0.000928611
-0.000971094
-0.00102013
-0.00107513
-0.00113471
-0.00119116
-0.00119744
-0.000929774
-0.000972593
-0.00102202
-0.00107743
-0.00113739
-0.00119406
-0.0012003
-0.000931206
-0.000974471
-0.00102443
-0.00108042
-0.00114095
-0.00119794
-0.00120411
-0.000932861
-0.000976689
-0.00102734
-0.00108412
-0.00114545
-0.00120288
-0.00120888
-0.000934665
-0.000979172
-0.00103067
-0.0010885
-0.00115103
-0.00120923
-0.00121501
-0.000936494
-0.000981734
-0.00103424
-0.0010935
-0.00115802
-0.0012175
-0.00122279
-0.000937953
-0.00098378
-0.00103723
-0.00109824
-0.0011649
-0.00122351
-0.00122622
-0.000426999
-0.000482128
-0.00054634
-0.000601002
-0.000646272
-0.00068499
-0.000718923
-0.000429343
-0.000485686
-0.000548781
-0.000601874
-0.000646083
-0.000684281
-0.000717979
-0.000434786
-0.000490678
-0.000552242
-0.000603791
-0.000646969
-0.00068453
-0.000717803
-0.000439965
-0.000495205
-0.000555573
-0.00060596
-0.000648286
-0.000685236
-0.000718055
-0.000444194
-0.00049898
-0.000558499
-0.000608004
-0.000649623
-0.000686031
-0.000718426
-0.000447556
-0.000502074
-0.000560995
-0.000609833
-0.000650881
-0.000686827
-0.000718851
-0.000450073
-0.000504448
-0.000562973
-0.000611339
-0.000651958
-0.000687539
-0.000719259
-0.000550116
-0.000576212
-0.000613348
-0.00064954
-0.000681734
-0.000710602
-0.00073681
-0.000549531
-0.000576204
-0.000613394
-0.000649002
-0.000680697
-0.000709378
-0.000735571
-0.000551136
-0.00057806
-0.000614756
-0.000649589
-0.000680721
-0.000709068
-0.000735055
-0.000553386
-0.000580296
-0.000616483
-0.000650671
-0.000681299
-0.000709277
-0.000734989
-0.00055542
-0.000582282
-0.000618094
-0.000651791
-0.000681994
-0.000709632
-0.000735074
-0.000557156
-0.000583999
-0.000619541
-0.000652861
-0.000682714
-0.000710055
-0.000735251
-0.000558538
-0.000585383
-0.000620738
-0.000653784
-0.000683369
-0.00071047
-0.000735459
-0.000655009
-0.00065987
-0.000676256
-0.000696748
-0.000716927
-0.000736368
-0.000754948
-0.000653249
-0.000658004
-0.000674899
-0.000695335
-0.000715391
-0.000734879
-0.000753583
-0.000652717
-0.000657901
-0.000674823
-0.000694977
-0.000714821
-0.000734202
-0.000752855
-0.000653071
-0.000658508
-0.00067534
-0.000695228
-0.00071484
-0.000734043
-0.000752559
-0.000653621
-0.000659176
-0.000675945
-0.000695633
-0.000715036
-0.000734059
-0.000752427
-0.000654248
-0.000659849
-0.000676569
-0.0006961
-0.000715326
-0.000734185
-0.000752409
-0.000654855
-0.000660449
-0.000677128
-0.000696543
-0.000715632
-0.000734356
-0.000752454
-0.000744178
-0.000732374
-0.000733153
-0.000740966
-0.000750789
-0.000761656
-0.000772985
-0.000741867
-0.000729666
-0.000731126
-0.000739155
-0.000749065
-0.000760102
-0.000771622
-0.000740107
-0.000728382
-0.000730181
-0.000738231
-0.000748146
-0.00075922
-0.000770786
-0.000739265
-0.000727846
-0.000729854
-0.000737903
-0.000747776
-0.000758807
-0.000770336
-0.000738903
-0.00072751
-0.000729706
-0.000737779
-0.000747606
-0.000758576
-0.000770047
-0.00073893
-0.000727304
-0.000729675
-0.00073778
-0.000747566
-0.000758475
-0.00076988
-0.000739227
-0.000727158
-0.000729691
-0.000737836
-0.000747595
-0.000758452
-0.000769797
-0.00082354
-0.000792727
-0.000782914
-0.000781046
-0.00078229
-0.000785642
-0.000790334
-0.000820115
-0.000789946
-0.000780762
-0.000779185
-0.000780588
-0.000784148
-0.000789051
-0.000817464
-0.000787906
-0.000779388
-0.000778005
-0.000779519
-0.000783187
-0.000788186
-0.000815814
-0.000786374
-0.000778521
-0.000777329
-0.000778916
-0.000782624
-0.00078765
-0.000815068
-0.000784914
-0.000777823
-0.000776851
-0.000778504
-0.000782233
-0.000787262
-0.000815275
-0.000783403
-0.00077724
-0.000776518
-0.000778234
-0.000781976
-0.000786995
-0.000816329
-0.000781733
-0.000776732
-0.000776285
-0.000778065
-0.000781816
-0.00078682
-0.000872485
-0.000843748
-0.000825735
-0.000816387
-0.000810731
-0.000807693
-0.000806505
-0.000870852
-0.000841071
-0.000823702
-0.000814683
-0.000809176
-0.000806335
-0.000805347
-0.000868777
-0.000839266
-0.000822321
-0.000813485
-0.000808103
-0.000805388
-0.000804514
-0.000867265
-0.000838006
-0.000821374
-0.000812693
-0.00080741
-0.000804768
-0.00080395
-0.000866239
-0.000836983
-0.000820614
-0.000812084
-0.000806887
-0.000804299
-0.000803515
-0.000865665
-0.00083616
-0.00082002
-0.000811629
-0.000806506
-0.000803957
-0.000803193
-0.000865457
-0.0008355
-0.000819565
-0.000811297
-0.000806238
-0.000803719
-0.000802964
-0.000749239
-0.00077716
-0.000803862
-0.000830438
-0.000857946
-0.000887357
-0.000748219
-0.000776168
-0.000802938
-0.000829563
-0.000857059
-0.000886465
-0.000747781
-0.000775579
-0.000802253
-0.000828786
-0.000856156
-0.000885353
-0.000747704
-0.000775267
-0.000801757
-0.000828118
-0.00085529
-0.000884226
-0.000747753
-0.000775069
-0.000801354
-0.000827521
-0.000854482
-0.000883162
-0.000747882
-0.000774959
-0.000801041
-0.000827015
-0.000853774
-0.000882221
-0.00074804
-0.000774909
-0.000800809
-0.000826611
-0.000853191
-0.000881441
-0.000760869
-0.000783446
-0.000805252
-0.000826972
-0.000849234
-0.000872603
-0.0007597
-0.000782397
-0.000804336
-0.000826166
-0.000848505
-0.000871928
-0.000759071
-0.00078172
-0.000803639
-0.000825446
-0.000847731
-0.000871048
-0.000758807
-0.000781316
-0.000803124
-0.000824823
-0.00084698
-0.000870129
-0.000758684
-0.000781029
-0.000802699
-0.000824265
-0.000846275
-0.000869246
-0.00075866
-0.00078084
-0.000802364
-0.00082379
-0.000845653
-0.000868452
-0.000758692
-0.000780721
-0.000802112
-0.000823408
-0.000845136
-0.000867787
-0.000772608
-0.000789547
-0.000806077
-0.000822526
-0.000839172
-0.0008562
-0.000771398
-0.00078851
-0.000805209
-0.000821803
-0.000838568
-0.000855703
-0.000770663
-0.000787798
-0.000804532
-0.000821152
-0.00083792
-0.000855026
-0.00077027
-0.000787338
-0.00080402
-0.000820586
-0.000837286
-0.000854296
-0.000770019
-0.000786993
-0.000803592
-0.000820077
-0.000836685
-0.000853582
-0.000769878
-0.000786746
-0.00080325
-0.000819642
-0.00083615
-0.000852931
-0.000769809
-0.000786577
-0.000802989
-0.000819289
-0.000835702
-0.000852378
-0.000784341
-0.000795584
-0.000806717
-0.000817777
-0.000828771
-0.000839601
-0.000783171
-0.000794607
-0.000805921
-0.000817139
-0.000828269
-0.000839237
-0.000782394
-0.000793899
-0.000805282
-0.000816561
-0.000827732
-0.000838719
-0.000781919
-0.000793412
-0.000804787
-0.000816057
-0.0008272
-0.000838147
-0.00078158
-0.000793032
-0.000804369
-0.000815596
-0.000826694
-0.000837577
-0.000781352
-0.000792746
-0.00080403
-0.000815201
-0.000826238
-0.000837049
-0.000781206
-0.000792541
-0.000803767
-0.00081488
-0.000825855
-0.000836597
-0.000795728
-0.000801461
-0.000807313
-0.000813113
-0.000818674
-0.000823693
-0.000794645
-0.000800569
-0.000806598
-0.000812554
-0.000818246
-0.000823417
-0.000793875
-0.000799892
-0.000806009
-0.000812041
-0.000817798
-0.000823018
-0.000793361
-0.000799403
-0.000805542
-0.000811587
-0.000817355
-0.000822568
-0.00079297
-0.000799008
-0.000805142
-0.00081118
-0.000816929
-0.000822114
-0.000792685
-0.000798703
-0.000804814
-0.000810827
-0.000816543
-0.000821688
-0.000792486
-0.000798475
-0.000804557
-0.000810538
-0.000816216
-0.000821319
-0.000806448
-0.000807034
-0.000807902
-0.000808743
-0.00080925
-0.000808964
-0.000805477
-0.000806239
-0.00080727
-0.000808254
-0.000808862
-0.000808745
-0.00080475
-0.000805613
-0.000806738
-0.000807806
-0.000808495
-0.000808431
-0.000804234
-0.000805141
-0.000806306
-0.000807406
-0.000808122
-0.000808073
-0.000803824
-0.000804751
-0.000805931
-0.000807042
-0.00080776
-0.000807707
-0.000803511
-0.000804441
-0.000805619
-0.000806724
-0.000807432
-0.000807362
-0.000803281
-0.000804204
-0.000805372
-0.000806463
-0.000807152
-0.00080706
-0.000919942
-0.00095652
-0.000997086
-0.0010406
-0.00108457
-0.00111809
-0.00111894
-0.000918863
-0.000955079
-0.000995047
-0.00103751
-0.00108047
-0.00111464
-0.00111576
-0.00091742
-0.000953155
-0.000992485
-0.00103406
-0.00107596
-0.00110983
-0.0011116
-0.000915937
-0.000951202
-0.000989966
-0.00103087
-0.00107206
-0.00110568
-0.00110794
-0.000914548
-0.000949403
-0.000987689
-0.00102806
-0.00106877
-0.00110222
-0.00110478
-0.000913326
-0.000947845
-0.00098575
-0.00102572
-0.00106607
-0.00109938
-0.00110213
-0.00091232
-0.00094658
-0.000984197
-0.00102388
-0.00106397
-0.00109719
-0.00110006
-0.000897632
-0.00092446
-0.000952453
-0.00098027
-0.00100562
-0.00101991
-0.00101352
-0.0008969
-0.000923572
-0.000951278
-0.000978572
-0.00100363
-0.00101871
-0.00101178
-0.000895837
-0.000922239
-0.000949591
-0.000976399
-0.00100097
-0.00101618
-0.00100985
-0.000894689
-0.000920794
-0.000947802
-0.000974219
-0.000998415
-0.00101363
-0.0010078
-0.000893582
-0.000919416
-0.000946119
-0.000972219
-0.000996147
-0.00101135
-0.00100584
-0.000892587
-0.000918187
-0.000944637
-0.000970483
-0.000994206
-0.00100939
-0.00100409
-0.000891754
-0.000917166
-0.000943417
-0.000969072
-0.000992645
-0.0010078
-0.00100265
-0.000873721
-0.000891444
-0.000908447
-0.000923363
-0.000934284
-0.000934336
-0.000919493
-0.000873259
-0.000890963
-0.000907886
-0.000922591
-0.000933547
-0.000934352
-0.000918572
-0.000872504
-0.000890082
-0.00090684
-0.000921316
-0.000932083
-0.000933163
-0.000917826
-0.000871641
-0.00088905
-0.000905617
-0.000919887
-0.000930482
-0.000931675
-0.000916782
-0.000870786
-0.000888028
-0.000904414
-0.000918505
-0.000928965
-0.00093022
-0.000915622
-0.00087
-0.000887089
-0.000903316
-0.000917255
-0.000927604
-0.000928887
-0.000914489
-0.000869329
-0.000886291
-0.000902386
-0.000916205
-0.000926466
-0.000927755
-0.000913484
-0.000850098
-0.00085973
-0.00086747
-0.000872006
-0.000871737
-0.000860679
-0.000836464
-0.000849819
-0.000859509
-0.000867279
-0.000871768
-0.000871661
-0.000861321
-0.00083623
-0.000849292
-0.000858946
-0.000866667
-0.000871077
-0.000870951
-0.000860955
-0.000836239
-0.000848655
-0.000858225
-0.000865855
-0.000870172
-0.000869991
-0.000860163
-0.00083582
-0.000848004
-0.000857481
-0.000865013
-0.000869236
-0.000868994
-0.000859256
-0.000835136
-0.000847393
-0.000856777
-0.000864215
-0.00086835
-0.000868045
-0.000858338
-0.000834345
-0.000846863
-0.000856163
-0.000863518
-0.00086758
-0.000867218
-0.00085751
-0.000833576
-0.000827841
-0.00083047
-0.000830562
-0.000826942
-0.000818225
-0.000798545
-0.000760292
-0.000827674
-0.000830396
-0.000830563
-0.000826962
-0.00081847
-0.000799566
-0.000762041
-0.000827304
-0.000830041
-0.00083022
-0.000826617
-0.000818189
-0.000799682
-0.000762662
-0.000826834
-0.000829541
-0.000829689
-0.00082606
-0.000817638
-0.000799302
-0.000762516
-0.000826341
-0.000829002
-0.000829105
-0.000825436
-0.000816995
-0.000798723
-0.000761935
-0.000825868
-0.000828477
-0.000828528
-0.000824812
-0.000816338
-0.000798068
-0.00076116
-0.000825452
-0.00082801
-0.000828011
-0.000824249
-0.000815735
-0.000797436
-0.000760352
-0.000807507
-0.000804189
-0.000798071
-0.000788204
-0.00077344
-0.000748546
-0.000713245
-0.000807401
-0.000804182
-0.000798144
-0.000788297
-0.000773762
-0.000749455
-0.000712856
-0.000807134
-0.000803953
-0.000797949
-0.000788119
-0.000773651
-0.000749633
-0.000713156
-0.000806781
-0.0008036
-0.000797596
-0.000787768
-0.000773329
-0.000749446
-0.000713162
-0.000806403
-0.000803206
-0.000797186
-0.000787349
-0.000772917
-0.000749097
-0.000712906
-0.000806036
-0.000802813
-0.000796768
-0.000786911
-0.00077247
-0.000748674
-0.000712523
-0.000805708
-0.000802456
-0.000796384
-0.000786502
-0.000772044
-0.000748248
-0.000712107
-0.00045182
-0.000506135
-0.000564418
-0.000612469
-0.000652789
-0.000688106
-0.000719599
-0.000452911
-0.00050721
-0.000565357
-0.000613218
-0.00065335
-0.000688496
-0.000719838
-0.000453434
-0.000507732
-0.000565818
-0.000613591
-0.000653632
-0.000688694
-0.000719962
-0.000453434
-0.000507732
-0.000565818
-0.000613591
-0.000653632
-0.000688694
-0.000719962
-0.000452912
-0.000507211
-0.000565357
-0.000613219
-0.000653351
-0.000688496
-0.000719839
-0.000451821
-0.000506136
-0.000564419
-0.00061247
-0.00065279
-0.000688107
-0.0007196
-0.000559538
-0.0005864
-0.000621639
-0.000654498
-0.000683893
-0.000710817
-0.000735648
-0.000560173
-0.000587064
-0.000622238
-0.000654982
-0.000684255
-0.000711063
-0.000735787
-0.00056048
-0.000587391
-0.000622537
-0.000655226
-0.00068444
-0.00071119
-0.000735861
-0.00056048
-0.000587392
-0.000622537
-0.000655226
-0.00068444
-0.000711191
-0.000735862
-0.000560174
-0.000587065
-0.000622239
-0.000654983
-0.000684256
-0.000711064
-0.000735788
-0.000559539
-0.000586402
-0.00062164
-0.0006545
-0.000683894
-0.000710819
-0.000735649
-0.000655334
-0.000660921
-0.000677573
-0.000696907
-0.000715897
-0.000734518
-0.000752517
-0.000655635
-0.000661249
-0.000677885
-0.000697164
-0.000716088
-0.000734641
-0.000752572
-0.000655777
-0.000661416
-0.000678046
-0.000697297
-0.000716189
-0.000734707
-0.000752604
-0.000655777
-0.000661417
-0.000678046
-0.000697298
-0.000716189
-0.000734708
-0.000752604
-0.000655636
-0.000661251
-0.000677886
-0.000697165
-0.000716089
-0.000734642
-0.000752573
-0.000655336
-0.000660923
-0.000677575
-0.000696908
-0.000715898
-0.00073452
-0.000752518
-0.000739506
-0.0007271
-0.000729739
-0.00073791
-0.000747649
-0.000758466
-0.000769759
-0.000739595
-0.000727147
-0.000729811
-0.000737982
-0.000747702
-0.000758489
-0.000769746
-0.000739616
-0.000727186
-0.000729859
-0.000738025
-0.000747733
-0.000758505
-0.000769743
-0.000739616
-0.000727186
-0.000729859
-0.000738026
-0.000747734
-0.000758505
-0.000769743
-0.000739597
-0.000727148
-0.000729812
-0.000737983
-0.000747703
-0.00075849
-0.000769747
-0.000739508
-0.000727102
-0.000729741
-0.000737913
-0.000747651
-0.000758468
-0.000769761
-0.00081717
-0.000780576
-0.000776391
-0.000776139
-0.000777965
-0.000781721
-0.000786709
-0.000817121
-0.00078036
-0.000776273
-0.000776073
-0.000777917
-0.00078167
-0.000786645
-0.00081702
-0.000780309
-0.000776238
-0.00077605
-0.000777898
-0.000781649
-0.000786617
-0.00081702
-0.00078031
-0.000776238
-0.000776051
-0.000777898
-0.000781649
-0.000786617
-0.000817123
-0.000780362
-0.000776275
-0.000776075
-0.000777918
-0.000781671
-0.000786647
-0.000817173
-0.000780579
-0.000776394
-0.000776142
-0.000777968
-0.000781723
-0.000786711
-0.000865353
-0.00083505
-0.000819254
-0.000811073
-0.000806059
-0.00080356
-0.000802809
-0.000865189
-0.000834837
-0.000819086
-0.000810944
-0.000805954
-0.000803464
-0.000802712
-0.000865084
-0.000834746
-0.000819014
-0.000810887
-0.000805905
-0.000803419
-0.000802667
-0.000865085
-0.000834747
-0.000819015
-0.000810887
-0.000805906
-0.00080342
-0.000802667
-0.000865191
-0.000834839
-0.000819088
-0.000810946
-0.000805955
-0.000803466
-0.000802714
-0.000865356
-0.000835053
-0.000819257
-0.000811077
-0.000806062
-0.000803563
-0.000802811
-0.000911555
-0.000945627
-0.00098304
-0.00102253
-0.00106245
-0.00109561
-0.00109855
-0.000911042
-0.000944991