/*--------------------------------*- C++ -*----------------------------------*\
  =========                 |
  \\      /  F ield         | OpenFOAM: The Open Source CFD Toolbox
   \\    /   O peration     | Website:  https://openfoam.org
    \\  /    A nd           | Version:  7
     \\/     M anipulation  |
\*---------------------------------------------------------------------------*/
FoamFile
{
    version     2.0;
    format      ascii;
    class       volScalarField;
    location    "2.25";
    object      p;
}
// * * * * * * * * * * * * * * * * * * * * * * * * * * * * * * * * * * * * * //

dimensions      [0 2 -2 0 0 0 0];

internalField   nonuniform List<scalar> 
7784
(
2.8177e-10
-0.000314071
-0.000915303
-0.00155412
-0.00200595
-0.00232656
-0.00258745
0.000159751
-0.000240867
-0.000933093
-0.00156877
-0.00200445
-0.00232149
-0.00258342
8.96408e-05
-0.000310431
-0.00097966
-0.00158843
-0.0020098
-0.00232212
-0.00258247
4.91908e-05
-0.000346383
-0.00100503
-0.00160211
-0.00201596
-0.00232443
-0.0025828
2.96286e-05
-0.00036474
-0.00101978
-0.00161162
-0.00202104
-0.00232668
-0.00258342
1.78872e-05
-0.000376378
-0.00102952
-0.0016183
-0.00202494
-0.00232861
-0.0025841
1.09477e-05
-0.000383417
-0.00103562
-0.00162273
-0.00202771
-0.0023301
-0.00258469
-0.000659854
-0.000961447
-0.00143707
-0.00186503
-0.0021777
-0.00242796
-0.00264998
-0.000626345
-0.000949782
-0.00144193
-0.00186354
-0.00216945
-0.00242023
-0.00264425
-0.000664606
-0.000985502
-0.00146207
-0.0018689
-0.00216836
-0.00241773
-0.00264156
-0.000684006
-0.00100282
-0.00147345
-0.001874
-0.00216987
-0.00241755
-0.00264053
-0.000691844
-0.00101102
-0.00148019
-0.001878
-0.00217164
-0.00241794
-0.00264011
-0.000696453
-0.00101644
-0.00148499
-0.00188117
-0.00217331
-0.00241857
-0.00264003
-0.000699086
-0.00101977
-0.00148812
-0.00188341
-0.00217466
-0.00241919
-0.00264011
-0.0013619
-0.00152311
-0.00180068
-0.00207592
-0.0023082
-0.00251524
-0.00270766
-0.0013439
-0.00150692
-0.00178965
-0.00206521
-0.00229736
-0.00250648
-0.00270117
-0.00134794
-0.00151249
-0.00179199
-0.00206299
-0.00229322
-0.00250238
-0.00269757
-0.00135087
-0.00151648
-0.00179471
-0.00206334
-0.0022921
-0.00250067
-0.00269567
-0.00135141
-0.00151837
-0.00179655
-0.00206406
-0.00229183
-0.00249981
-0.00269449
-0.00135161
-0.00151982
-0.00179813
-0.00206495
-0.002292
-0.00249945
-0.00269379
-0.00135152
-0.00152071
-0.00179925
-0.00206571
-0.00229229
-0.00249936
-0.0026934
-0.00281344
-0.0030165
-0.00320721
-0.00339422
-0.0035851
-0.00378857
-0.00281023
-0.00301391
-0.00320526
-0.00339283
-0.00358417
-0.00378777
-0.00280863
-0.00301219
-0.00320364
-0.00339131
-0.00358258
-0.00378574
-0.00280798
-0.00301109
-0.00320231
-0.00338977
-0.00358069
-0.00378313
-0.0028077
-0.00301029
-0.00320116
-0.00338829
-0.00357876
-0.0037805
-0.00280761
-0.00300971
-0.00320021
-0.00338698
-0.003577
-0.0037781
-0.00280761
-0.00300929
-0.00319945
-0.00338589
-0.00357552
-0.00377609
-0.00285135
-0.00303826
-0.0032176
-0.00339547
-0.0035778
-0.00377083
-0.00284702
-0.00303507
-0.00321541
-0.00339409
-0.00357708
-0.00377053
-0.00284444
-0.00303282
-0.00321355
-0.00339254
-0.00357567
-0.00376897
-0.00284302
-0.00303129
-0.00321202
-0.00339098
-0.00357393
-0.00376678
-0.00284211
-0.00303013
-0.0032107
-0.00338949
-0.00357215
-0.00376449
-0.00284156
-0.00302926
-0.00320961
-0.00338817
-0.0035705
-0.00376236
-0.00284123
-0.00302863
-0.00320874
-0.00338706
-0.00356909
-0.00376055
-0.00288764
-0.00305859
-0.00322472
-0.00339013
-0.0035588
-0.00373493
-0.00288285
-0.00305518
-0.00322245
-0.00338878
-0.00355827
-0.00373504
-0.00287982
-0.00305274
-0.00322055
-0.00338732
-0.00355708
-0.00373393
-0.00287795
-0.003051
-0.00321897
-0.00338584
-0.00355557
-0.00373219
-0.00287662
-0.00304964
-0.0032176
-0.00338443
-0.003554
-0.00373031
-0.00287572
-0.0030486
-0.00321646
-0.00338316
-0.00355253
-0.00372852
-0.00287511
-0.00304782
-0.00321555
-0.00338211
-0.00355127
-0.00372696
-0.00401608
-0.00428431
-0.00460488
-0.00500533
-0.00552383
-0.00603047
-0.00604826
-0.00401498
-0.00428224
-0.00460033
-0.00499259
-0.00550851
-0.00606311
-0.00612952
-0.00401168
-0.00427659
-0.00459155
-0.00497559
-0.00547613
-0.00601451
-0.00607616
-0.00400769
-0.00427017
-0.00458239
-0.0049606
-0.00545285
-0.00598413
-0.00604392
-0.00400387
-0.00426436
-0.00457462
-0.00494906
-0.00543709
-0.00596566
-0.00602537
-0.0040005
-0.00425949
-0.00456845
-0.00494047
-0.00542604
-0.00595308
-0.00601284
-0.00399774
-0.00425558
-0.00456377
-0.00493432
-0.00541849
-0.00594471
-0.00600458
-0.00398137
-0.00421555
-0.00448575
-0.00481006
-0.00521295
-0.00559243
-0.00564155
-0.00398125
-0.00421558
-0.00448444
-0.00480208
-0.0051996
-0.00560188
-0.00567238
-0.0039792
-0.0042124
-0.00447818
-0.00479001
-0.00517638
-0.00556947
-0.00564076
-0.00397621
-0.0042081
-0.00447091
-0.00477906
-0.00516007
-0.00554956
-0.00562154
-0.00397312
-0.00420396
-0.00446448
-0.00477035
-0.0051488
-0.00553735
-0.00561048
-0.00397031
-0.00420033
-0.0044592
-0.00476359
-0.00514052
-0.00552853
-0.00560248
-0.00396798
-0.00419745
-0.00445511
-0.0047586
-0.00513466
-0.0055224
-0.0055969
-0.00392259
-0.00412515
-0.00434491
-0.00458621
-0.00485445
-0.00507485
-0.00509283
-0.00392318
-0.00412616
-0.00434557
-0.00458367
-0.0048498
-0.00507817
-0.00509502
-0.00392185
-0.00412422
-0.00434222
-0.0045772
-0.00483817
-0.00506426
-0.00508341
-0.00391962
-0.00412109
-0.00433754
-0.00457031
-0.00482853
-0.00505373
-0.00507469
-0.00391722
-0.00411789
-0.00433308
-0.00456436
-0.00482115
-0.00504626
-0.00506864
-0.00391495
-0.00411498
-0.0043292
-0.00455946
-0.00481536
-0.00504046
-0.00506386
-0.00391301
-0.00411255
-0.00432609
-0.00455568
-0.00481106
-0.00503621
-0.00506032
7.14987e-06
-0.000387412
-0.00103925
-0.0016255
-0.00202955
-0.00233115
-0.00258514
5.20585e-06
-0.000389546
-0.00104126
-0.0016271
-0.00203066
-0.0023318
-0.00258543
4.38985e-06
-0.000390471
-0.00104216
-0.00162783
-0.00203117
-0.00233211
-0.00258557
4.39247e-06
-0.000390468
-0.00104216
-0.00162783
-0.00203117
-0.00233211
-0.00258556
5.21335e-06
-0.000389539
-0.00104126
-0.00162709
-0.00203065
-0.0023318
-0.00258542
7.16252e-06
-0.0003874
-0.00103923
-0.00162549
-0.00202954
-0.00233114
-0.00258513
-0.000700378
-0.00102162
-0.00149001
-0.00188487
-0.0021756
-0.00241968
-0.00264022
-0.00070095
-0.00102258
-0.00149106
-0.00188573
-0.00217619
-0.00242001
-0.00264031
-0.000701158
-0.00102299
-0.00149153
-0.00188613
-0.00217647
-0.00242017
-0.00264035
-0.000701156
-0.00102299
-0.00149153
-0.00188613
-0.00217647
-0.00242016
-0.00264035
-0.000700943
-0.00102258
-0.00149106
-0.00188573
-0.00217619
-0.00242
-0.00264031
-0.000700367
-0.00102161
-0.00149
-0.00188486
-0.0021756
-0.00241968
-0.00264022
-0.00135122
-0.00152114
-0.00179993
-0.00206623
-0.00229255
-0.00249936
-0.00269318
-0.00135091
-0.00152131
-0.00180029
-0.00206654
-0.00229272
-0.00249938
-0.00269305
-0.00135072
-0.00152136
-0.00180045
-0.00206668
-0.00229281
-0.00249939
-0.002693
-0.00135072
-0.00152136
-0.00180045
-0.00206668
-0.00229281
-0.00249939
-0.002693
-0.00135091
-0.0015213
-0.00180029
-0.00206654
-0.00229272
-0.00249937
-0.00269305
-0.00135121
-0.00152113
-0.00179992
-0.00206622
-0.00229254
-0.00249935
-0.00269317
-0.00280763
-0.00300899
-0.00319888
-0.00338505
-0.00357437
-0.00377454
-0.00280766
-0.0030088
-0.0031985
-0.00338448
-0.00357358
-0.0037735
-0.00280767
-0.00300871
-0.00319831
-0.0033842
-0.00357319
-0.00377297
-0.00280766
-0.00300871
-0.00319831
-0.0033842
-0.00357319
-0.00377297
-0.00280765
-0.0030088
-0.0031985
-0.00338448
-0.00357358
-0.00377349
-0.00280763
-0.00300899
-0.00319888
-0.00338505
-0.00357436
-0.00377454
-0.00284103
-0.00302819
-0.00320809
-0.00338621
-0.003568
-0.00375915
-0.00284091
-0.0030279
-0.00320766
-0.00338563
-0.00356725
-0.0037582
-0.00284086
-0.00302776
-0.00320744
-0.00338534
-0.00356688
-0.00375772
-0.00284085
-0.00302776
-0.00320744
-0.00338534
-0.00356688
-0.00375772
-0.00284091
-0.0030279
-0.00320765
-0.00338563
-0.00356725
-0.0037582
-0.00284102
-0.00302818
-0.00320808
-0.0033862
-0.00356799
-0.00375914
-0.0028747
-0.00304728
-0.00321487
-0.00338129
-0.00355028
-0.00372574
-0.00287445
-0.00304692
-0.00321442
-0.00338074
-0.0035496
-0.00372491
-0.00287433
-0.00304675
-0.0032142
-0.00338046
-0.00354926
-0.00372449
-0.00287433
-0.00304675
-0.00321419
-0.00338046
-0.00354926
-0.00372449
-0.00287445
-0.00304692
-0.00321442
-0.00338074
-0.0035496
-0.00372491
-0.0028747
-0.00304727
-0.00321487
-0.00338129
-0.00355027
-0.00372574
-0.00399565
-0.00425267
-0.00456045
-0.00493012
-0.00541354
-0.00593938
-0.0059994
-0.00399427
-0.00425079
-0.00455834
-0.00492753
-0.00541056
-0.00593623
-0.00599636
-0.00399358
-0.00424987
-0.00455731
-0.00492629
-0.00540915
-0.00593476
-0.00599496
-0.00399358
-0.00424987
-0.00455731
-0.00492628
-0.00540915
-0.00593476
-0.00599495
-0.00399427
-0.00425079
-0.00455834
-0.00492752
-0.00541055
-0.00593622
-0.00599635
-0.00399565
-0.00425267
-0.00456045
-0.00493012
-0.00541353
-0.00593937
-0.00599938
-0.0039662
-0.00419534
-0.00445217
-0.00475512
-0.00513073
-0.00551837
-0.00559325
-0.00396501
-0.00419394
-0.00445028
-0.00475294
-0.00512831
-0.00551593
-0.00559105
-0.00396442
-0.00419324
-0.00444936
-0.00475189
-0.00512716
-0.00551478
-0.00559002
-0.00396442
-0.00419324
-0.00444936
-0.00475188
-0.00512716
-0.00551477
-0.00559002
-0.00396501
-0.00419393
-0.00445028
-0.00475293
-0.0051283
-0.00551592
-0.00559105
-0.0039662
-0.00419533
-0.00445217
-0.00475512
-0.00513072
-0.00551836
-0.00559324
-0.0039115
-0.00411072
-0.00432379
-0.00455298
-0.00480808
-0.00503331
-0.00505791
-0.00391049
-0.00410949
-0.00432228
-0.00455125
-0.00480621
-0.0050315
-0.00505641
-0.00390997
-0.00410888
-0.00432154
-0.0045504
-0.00480531
-0.00503064
-0.00505569
-0.00390997
-0.00410887
-0.00432154
-0.0045504
-0.0048053
-0.00503063
-0.00505569
-0.00391048
-0.00410949
-0.00432228
-0.00455124
-0.0048062
-0.0050315
-0.0050564
-0.0039115
-0.00411071
-0.00432378
-0.00455297
-0.00480807
-0.0050333
-0.0050579
1.09652e-05
-0.0003834
-0.00103561
-0.00162271
-0.0020277
-0.00233009
-0.00258468
1.79096e-05
-0.000376356
-0.0010295
-0.00161829
-0.00202492
-0.0023286
-0.00258408
2.96557e-05
-0.000364714
-0.00101976
-0.00161159
-0.00202103
-0.00232667
-0.00258341
4.9223e-05
-0.000346353
-0.001005
-0.00160209
-0.00201594
-0.00232441
-0.00258279
8.96763e-05
-0.000310397
-0.000979633
-0.00158841
-0.00200978
-0.0023221
-0.00258245
0.000159792
-0.000240831
-0.000933066
-0.00156874
-0.00200443
-0.00232148
-0.00258341
3.71159e-08
-0.000314037
-0.00091528
-0.00155411
-0.00200593
-0.00232655
-0.00258744
-0.00069907
-0.00101975
-0.0014881
-0.0018834
-0.00217464
-0.00241918
-0.0026401
-0.000696432
-0.00101642
-0.00148497
-0.00188115
-0.0021733
-0.00241856
-0.00264002
-0.000691819
-0.00101099
-0.00148017
-0.00187798
-0.00217162
-0.00241793
-0.0026401
-0.000683974
-0.00100279
-0.00147343
-0.00187398
-0.00216985
-0.00241753
-0.00264052
-0.000664566
-0.000985469
-0.00146205
-0.00186888
-0.00216835
-0.00241771
-0.00264154
-0.0006263
-0.000949744
-0.00144191
-0.00186352
-0.00216944
-0.00242021
-0.00264424
-0.000659809
-0.000961411
-0.00143705
-0.00186502
-0.00217769
-0.00242795
-0.00264997
-0.00135151
-0.0015207
-0.00179924
-0.00206569
-0.00229228
-0.00249935
-0.00269339
-0.00135159
-0.0015198
-0.00179811
-0.00206494
-0.00229199
-0.00249944
-0.00269378
-0.00135139
-0.00151835
-0.00179653
-0.00206404
-0.00229181
-0.00249979
-0.00269447
-0.00135084
-0.00151646
-0.00179469
-0.00206332
-0.00229209
-0.00250066
-0.00269565
-0.00134791
-0.00151246
-0.00179197
-0.00206298
-0.00229321
-0.00250237
-0.00269755
-0.00134386
-0.00150689
-0.00178963
-0.00206519
-0.00229735
-0.00250647
-0.00270115
-0.00136186
-0.00152308
-0.00180067
-0.00207591
-0.00230819
-0.00251523
-0.00270765
-0.0028076
-0.00300928
-0.00319944
-0.00338588
-0.00357551
-0.00377608
-0.0028076
-0.0030097
-0.0032002
-0.00338697
-0.00357699
-0.00377809
-0.00280769
-0.00301028
-0.00320115
-0.00338829
-0.00357875
-0.00378049
-0.00280797
-0.00301108
-0.0032023
-0.00338976
-0.00358068
-0.00378312
-0.00280862
-0.00301218
-0.00320363
-0.0033913
-0.00358257
-0.00378572
-0.00281021
-0.0030139
-0.00320525
-0.00339282
-0.00358416
-0.00378776
-0.00281343
-0.00301649
-0.0032072
-0.00339421
-0.00358509
-0.00378856
-0.00284122
-0.00302862
-0.00320873
-0.00338705
-0.00356908
-0.00376054
-0.00284155
-0.00302925
-0.0032096
-0.00338816
-0.00357049
-0.00376235
-0.0028421
-0.00303012
-0.00321069
-0.00338948
-0.00357214
-0.00376448
-0.00284301
-0.00303128
-0.00321201
-0.00339097
-0.00357392
-0.00376677
-0.00284442
-0.00303281
-0.00321354
-0.00339253
-0.00357566
-0.00376896
-0.00284701
-0.00303506
-0.0032154
-0.00339408
-0.00357707
-0.00377052
-0.00285134
-0.00303825
-0.00321759
-0.00339546
-0.00357779
-0.00377082
-0.0028751
-0.00304782
-0.00321554
-0.0033821
-0.00355126
-0.00372696
-0.00287571
-0.00304859
-0.00321645
-0.00338315
-0.00355253
-0.00372851
-0.00287661
-0.00304963
-0.00321759
-0.00338442
-0.00355399
-0.0037303
-0.00287794
-0.00305099
-0.00321896
-0.00338583
-0.00355556
-0.00373218
-0.00287981
-0.00305273
-0.00322054
-0.0033873
-0.00355707
-0.00373391
-0.00288284
-0.00305517
-0.00322244
-0.00338877
-0.00355826
-0.00373503
-0.00288763
-0.00305858
-0.00322472
-0.00339012
-0.00355879
-0.00373492
-0.00399774
-0.00425558
-0.00456376
-0.00493431
-0.00541848
-0.00594469
-0.00600456
-0.0040005
-0.00425948
-0.00456844
-0.00494046
-0.00542602
-0.00595306
-0.00601282
-0.00400386
-0.00426435
-0.00457461
-0.00494904
-0.00543707
-0.00596563
-0.00602534
-0.00400768
-0.00427015
-0.00458237
-0.00496057
-0.00545282
-0.0059841
-0.00604388
-0.00401167
-0.00427657
-0.00459153
-0.00497556
-0.00547609
-0.00601447
-0.00607611
-0.00401497
-0.00428222
-0.0046003
-0.00499256
-0.00550847
-0.00606306
-0.00612946
-0.00401607
-0.00428429
-0.00460485
-0.00500529
-0.00552379
-0.00603042
-0.0060482
-0.00396797
-0.00419744
-0.0044551
-0.00475859
-0.00513465
-0.00552238
-0.00559688
-0.00397031
-0.00420032
-0.00445919
-0.00476358
-0.00514051
-0.00552851
-0.00560246
-0.00397311
-0.00420395
-0.00446447
-0.00477033
-0.00514878
-0.00553732
-0.00561045
-0.0039762
-0.00420809
-0.00447089
-0.00477904
-0.00516004
-0.00554953
-0.0056215
-0.00397918
-0.00421238
-0.00447816
-0.00478998
-0.00517635
-0.00556943
-0.00564071
-0.00398124
-0.00421556
-0.00448442
-0.00480205
-0.00519956
-0.00560183
-0.00567232
-0.00398136
-0.00421553
-0.00448573
-0.00481003
-0.00521291
-0.00559238
-0.00564149
-0.003913
-0.00411254
-0.00432608
-0.00455567
-0.00481105
-0.0050362
-0.00506031
-0.00391494
-0.00411497
-0.00432919
-0.00455944
-0.00481534
-0.00504044
-0.00506384
-0.00391721
-0.00411788
-0.00433306
-0.00456434
-0.00482113
-0.00504624
-0.00506862
-0.00391961
-0.00412108
-0.00433752
-0.00457029
-0.00482851
-0.0050537
-0.00507466
-0.00392184
-0.0041242
-0.0043422
-0.00457718
-0.00483814
-0.00506422
-0.00508337
-0.00392316
-0.00412614
-0.00434555
-0.00458364
-0.00484977
-0.00507812
-0.00509496
-0.00392258
-0.00412514
-0.00434489
-0.00458619
-0.00485442
-0.0050748
-0.00509278
-0.00186104
-0.00192068
-0.00207556
-0.00226245
-0.0024406
-0.00260983
-0.00277272
-0.00183803
-0.00189716
-0.00205971
-0.00225079
-0.00243064
-0.00260189
-0.00276674
-0.00182758
-0.00189044
-0.00205505
-0.00224582
-0.00242554
-0.00259737
-0.00276298
-0.00182275
-0.00188806
-0.00205351
-0.00224379
-0.00242311
-0.00259493
-0.0027607
-0.00181927
-0.00188633
-0.00205251
-0.00224262
-0.00242167
-0.00259336
-0.00275911
-0.00181677
-0.00188524
-0.00205202
-0.00224205
-0.00242088
-0.0025924
-0.00275805
-0.00181493
-0.00188447
-0.00205175
-0.00224177
-0.00242046
-0.00259182
-0.00275735
-0.00221317
-0.00222281
-0.00231212
-0.00243964
-0.00257255
-0.00270671
-0.00284112
-0.00219276
-0.00220222
-0.00229821
-0.00242927
-0.00256388
-0.00269982
-0.00283587
-0.00218036
-0.00219308
-0.00229165
-0.00242348
-0.00255861
-0.00269536
-0.00283224
-0.00217339
-0.00218838
-0.00228815
-0.00242022
-0.00255553
-0.00269258
-0.00282981
-0.00216843
-0.002185
-0.00228564
-0.00241798
-0.00255341
-0.00269061
-0.00282801
-0.00216479
-0.00218264
-0.00228396
-0.00241649
-0.002552
-0.00268925
-0.00282672
-0.00216209
-0.00218094
-0.0022828
-0.00241551
-0.00255107
-0.00268834
-0.00282582
-0.00248431
-0.00246695
-0.00251626
-0.00260029
-0.00269627
-0.00280001
-0.00290847
-0.00246975
-0.00245154
-0.00250523
-0.00259151
-0.00268893
-0.00279417
-0.00290397
-0.00245891
-0.00244291
-0.00249862
-0.0025858
-0.00268398
-0.00279006
-0.00290065
-0.00245185
-0.00243768
-0.00249442
-0.00258211
-0.00268071
-0.00278724
-0.00289826
-0.0024466
-0.00243382
-0.00249128
-0.00257936
-0.00267829
-0.0027851
-0.0028964
-0.00244263
-0.00243097
-0.002489
-0.00257739
-0.00267654
-0.00278354
-0.002895
-0.00243962
-0.00242884
-0.00248735
-0.002576
-0.00267531
-0.00278243
-0.00289398
-0.00269862
-0.00266696
-0.00268787
-0.00274069
-0.00280833
-0.00288667
-0.00297222
-0.00268886
-0.00265521
-0.00267916
-0.00273361
-0.00280234
-0.00288186
-0.00296848
-0.00268019
-0.00264778
-0.00267323
-0.00272851
-0.00279798
-0.00287824
-0.00296555
-0.00267385
-0.00264269
-0.00266904
-0.00272489
-0.00279485
-0.00287558
-0.00296332
-0.00266889
-0.00263873
-0.00266577
-0.00272207
-0.0027924
-0.00287347
-0.00296152
-0.00266499
-0.00263568
-0.00266328
-0.00271994
-0.00279055
-0.00287186
-0.00296012
-0.00266198
-0.00263338
-0.00266143
-0.00271837
-0.00278919
-0.00287067
-0.00295907
-0.00286903
-0.00282925
-0.00283117
-0.00286182
-0.00290757
-0.00296497
-0.00303076
-0.00286299
-0.00282044
-0.00282449
-0.00285628
-0.0029028
-0.00296109
-0.0030277
-0.00285641
-0.00281444
-0.00281956
-0.00285199
-0.00289911
-0.00295802
-0.0030252
-0.00285105
-0.00280994
-0.00281579
-0.00284873
-0.00289629
-0.00295563
-0.00302321
-0.00284661
-0.00280623
-0.0028127
-0.00284607
-0.002894
-0.00295367
-0.00302155
-0.00284301
-0.00280329
-0.00281027
-0.00284399
-0.0028922
-0.00295212
-0.00302022
-0.00284019
-0.00280103
-0.00280841
-0.00284241
-0.00289084
-0.00295095
-0.0030192
-0.00300535
-0.00296101
-0.00295047
-0.00296509
-0.0029939
-0.00303424
-0.00308325
-0.00300183
-0.00295453
-0.00294548
-0.00296085
-0.00299017
-0.00303115
-0.00308078
-0.00299701
-0.00294989
-0.00294156
-0.00295738
-0.00298714
-0.00302861
-0.0030787
-0.00299274
-0.00294616
-0.00293837
-0.00295459
-0.00298472
-0.00302655
-0.00307698
-0.00298902
-0.00294296
-0.00293565
-0.00295224
-0.00298269
-0.00302481
-0.0030755
-0.00298591
-0.00294034
-0.00293344
-0.00295033
-0.00298104
-0.00302339
-0.00307429
-0.00298343
-0.00293828
-0.00293172
-0.00294886
-0.00297977
-0.00302229
-0.00307335
-0.00292949
-0.00308151
-0.00323091
-0.00337999
-0.00353092
-0.00368609
-0.00292507
-0.00307835
-0.0032288
-0.00337876
-0.00353048
-0.0036863
-0.00292203
-0.00307597
-0.003227
-0.00337742
-0.00352951
-0.00368556
-0.00291999
-0.00307419
-0.00322547
-0.00337607
-0.00352826
-0.00368426
-0.00291846
-0.00307276
-0.00322413
-0.00337478
-0.00352694
-0.0036828
-0.00291736
-0.00307165
-0.003223
-0.00337361
-0.00352569
-0.00368137
-0.00291658
-0.0030708
-0.0032221
-0.00337264
-0.00352459
-0.00368009
-0.00297428
-0.00310597
-0.00323678
-0.00336752
-0.0034991
-0.00363225
-0.00297038
-0.00310317
-0.0032349
-0.00336645
-0.00349876
-0.00363254
-0.00296749
-0.00310095
-0.00323325
-0.00336528
-0.00349799
-0.00363209
-0.00296542
-0.00309922
-0.00323182
-0.0033641
-0.00349699
-0.00363117
-0.00296381
-0.00309779
-0.00323056
-0.00336295
-0.00349591
-0.00363008
-0.0029626
-0.00309666
-0.00322949
-0.00336192
-0.00349487
-0.00362897
-0.00296171
-0.00309579
-0.00322863
-0.00336105
-0.00349395
-0.00362797
-0.00301908
-0.00313058
-0.00324246
-0.00335451
-0.00346658
-0.00357833
-0.00301571
-0.00312815
-0.00324083
-0.00335358
-0.0034663
-0.00357865
-0.00301308
-0.00312614
-0.00323935
-0.00335257
-0.0034657
-0.00357839
-0.00301109
-0.00312452
-0.00323806
-0.00335155
-0.0034649
-0.00357775
-0.00300949
-0.00312315
-0.0032369
-0.00335056
-0.00346403
-0.00357695
-0.00300824
-0.00312204
-0.00323591
-0.00334966
-0.00346318
-0.00357611
-0.00300731
-0.00312118
-0.0032351
-0.00334889
-0.00346243
-0.00357533
-0.00306208
-0.00315438
-0.00324792
-0.00334181
-0.00343514
-0.00352692
-0.00305923
-0.00315231
-0.00324653
-0.00334101
-0.00343492
-0.00352721
-0.00305692
-0.00315054
-0.00324524
-0.00334015
-0.00343443
-0.00352706
-0.00305509
-0.00314907
-0.00324409
-0.00333927
-0.00343379
-0.00352661
-0.00305357
-0.00314781
-0.00324305
-0.00333842
-0.00343309
-0.00352602
-0.00305236
-0.00314676
-0.00324215
-0.00333764
-0.0034324
-0.0035254
-0.00305143
-0.00314594
-0.00324141
-0.00333697
-0.00343179
-0.0035248
-0.00310202
-0.00317666
-0.00325307
-0.00332993
-0.0034059
-0.00347956
-0.00309967
-0.00317493
-0.0032519
-0.00332925
-0.0034057
-0.0034798
-0.00309769
-0.00317341
-0.0032508
-0.00332852
-0.0034053
-0.0034797
-0.00309606
-0.00317211
-0.00324979
-0.00332777
-0.00340479
-0.00347938
-0.00309468
-0.00317097
-0.00324887
-0.00332705
-0.00340422
-0.00347895
-0.00309354
-0.00317002
-0.00324807
-0.00332638
-0.00340366
-0.00347848
-0.00309266
-0.00316925
-0.00324741
-0.0033258
-0.00340315
-0.00347803
-0.00313821
-0.00319698
-0.00325782
-0.00331916
-0.00337943
-0.00343703
-0.00313629
-0.00319556
-0.00325685
-0.00331859
-0.00337925
-0.00343721
-0.00313463
-0.00319428
-0.00325591
-0.00331797
-0.00337892
-0.00343714
-0.00313322
-0.00319316
-0.00325505
-0.00331734
-0.0033785
-0.0034369
-0.00313199
-0.00319216
-0.00325425
-0.00331672
-0.00337803
-0.00343657
-0.00313097
-0.0031913
-0.00325354
-0.00331614
-0.00337758
-0.00343621
-0.00313016
-0.00319061
-0.00325296
-0.00331565
-0.00337716
-0.00343586
-0.00384722
-0.00401499
-0.00418778
-0.00436366
-0.00453688
-0.00465108
-0.00463518
-0.00384801
-0.00401636
-0.00418942
-0.0043646
-0.00453934
-0.00465996
-0.00463833
-0.00384733
-0.00401553
-0.00418812
-0.00436207
-0.0045354
-0.00465728
-0.00463799
-0.00384581
-0.00401356
-0.00418543
-0.00435833
-0.00453062
-0.00465294
-0.0046356
-0.00384406
-0.00401135
-0.00418256
-0.00435471
-0.00452642
-0.00464912
-0.00463306
-0.00384233
-0.00400922
-0.0041799
-0.00435149
-0.00452284
-0.00464582
-0.00463071
-0.00384081
-0.00400737
-0.00417766
-0.00434888
-0.00452001
-0.00464321
-0.00462879
-0.0037671
-0.00390259
-0.0040355
-0.00416169
-0.00427396
-0.00433283
-0.00429801
-0.00376802
-0.00390417
-0.00403767
-0.00416407
-0.00427823
-0.00434241
-0.00430371
-0.00376778
-0.00390407
-0.00403757
-0.00416363
-0.00427764
-0.00434353
-0.00430664
-0.00376684
-0.00390299
-0.00403622
-0.00416188
-0.00427564
-0.00434224
-0.00430688
-0.00376564
-0.00390159
-0.00403453
-0.0041599
-0.00427355
-0.00434066
-0.00430635
-0.00376439
-0.00390013
-0.00403283
-0.00415796
-0.00427154
-0.00433904
-0.00430554
-0.00376325
-0.00389882
-0.00403131
-0.00415628
-0.00426983
-0.0043376
-0.00430473
-0.00368883
-0.00379608
-0.00389629
-0.00398456
-0.00405535
-0.00408328
-0.00403522
-0.00368974
-0.00379763
-0.00389847
-0.00398717
-0.00405905
-0.00409026
-0.00403961
-0.00368976
-0.0037979
-0.00389894
-0.00398769
-0.00405973
-0.00409219
-0.00404264
-0.00368921
-0.00379739
-0.00389841
-0.0039871
-0.0040592
-0.00409227
-0.00404387
-0.00368843
-0.00379656
-0.00389752
-0.00398616
-0.00405834
-0.00409188
-0.00404438
-0.00368756
-0.00379562
-0.0038965
-0.00398509
-0.00405735
-0.00409123
-0.00404448
-0.00368673
-0.00379473
-0.00389553
-0.00398409
-0.0040564
-0.00409054
-0.00404437
-0.00361557
-0.00369871
-0.00377259
-0.00383275
-0.00387441
-0.00387912
-0.00382782
-0.00361637
-0.00370006
-0.00377449
-0.00383501
-0.00387752
-0.00388447
-0.00382986
-0.00361652
-0.00370048
-0.00377517
-0.00383587
-0.00387862
-0.00388643
-0.0038322
-0.00361622
-0.0037003
-0.00377509
-0.00383588
-0.0038788
-0.00388712
-0.00383358
-0.00361572
-0.00369985
-0.00377469
-0.00383555
-0.00387863
-0.00388737
-0.00383441
-0.00361513
-0.00369928
-0.00377412
-0.00383503
-0.00387825
-0.00388731
-0.00383488
-0.00361454
-0.00369869
-0.00377354
-0.00383448
-0.0038778
-0.00388711
-0.00383511
-0.00354906
-0.00361193
-0.00366474
-0.00370374
-0.00372524
-0.003715
-0.00366177
-0.00354972
-0.00361304
-0.00366629
-0.00370554
-0.00372764
-0.003719
-0.0036621
-0.00354991
-0.00361348
-0.00366698
-0.00370641
-0.0037287
-0.00372063
-0.00366369
-0.00354976
-0.00361348
-0.00366712
-0.00370667
-0.00372913
-0.00372143
-0.00366488
-0.00354944
-0.00361326
-0.00366699
-0.00370665
-0.00372928
-0.00372189
-0.00366571
-0.00354903
-0.00361292
-0.00366671
-0.00370645
-0.00372923
-0.0037221
-0.00366628
-0.00354862
-0.00361254
-0.00366637
-0.00370618
-0.00372907
-0.00372215
-0.00366664
-0.00349002
-0.00353603
-0.00357206
-0.00359505
-0.0036023
-0.00358261
-0.00352861
-0.00349054
-0.00353691
-0.00357326
-0.00359639
-0.00360402
-0.00358546
-0.00352796
-0.00349071
-0.0035373
-0.00357386
-0.00359712
-0.00360486
-0.00358666
-0.0035289
-0.00349063
-0.00353737
-0.00357407
-0.00359744
-0.00360531
-0.00358734
-0.00352977
-0.00349043
-0.00353727
-0.00357407
-0.00359755
-0.00360556
-0.0035878
-0.00353044
-0.00349015
-0.00353707
-0.00357394
-0.00359751
-0.00360564
-0.00358808
-0.00353095
-0.00348986
-0.00353683
-0.00357376
-0.00359739
-0.00360563
-0.00358823
-0.00353132
-0.00181355
-0.00188388
-0.00205154
-0.0022416
-0.00242021
-0.00259147
-0.0027569
-0.00181263
-0.00188345
-0.00205138
-0.00224149
-0.00242007
-0.00259126
-0.00275663
-0.00181216
-0.00188323
-0.00205129
-0.00224144
-0.00242001
-0.00259117
-0.0027565
-0.00181216
-0.00188323
-0.00205129
-0.00224144
-0.00242
-0.00259117
-0.0027565
-0.00181262
-0.00188345
-0.00205137
-0.00224149
-0.00242007
-0.00259126
-0.00275663
-0.00181354
-0.00188387
-0.00205153
-0.00224159
-0.00242021
-0.00259146
-0.0027569
-0.00216015
-0.00217972
-0.00228199
-0.00241485
-0.00255046
-0.00268773
-0.0028252
-0.00215887
-0.00217891
-0.00228146
-0.00241443
-0.00255008
-0.00268736
-0.00282482
-0.00215824
-0.00217851
-0.0022812
-0.00241423
-0.0025499
-0.00268718
-0.00282464
-0.00215824
-0.00217851
-0.0022812
-0.00241423
-0.0025499
-0.00268718
-0.00282464
-0.00215887
-0.00217891
-0.00228146
-0.00241443
-0.00255008
-0.00268736
-0.00282482
-0.00216014
-0.00217971
-0.00228198
-0.00241484
-0.00255045
-0.00268773
-0.0028252
-0.00243741
-0.0024273
-0.00248619
-0.00257503
-0.00267446
-0.00278166
-0.00289327
-0.00243597
-0.00242629
-0.00248544
-0.00257442
-0.00267393
-0.00278118
-0.00289282
-0.00243525
-0.00242579
-0.00248507
-0.00257412
-0.00267367
-0.00278094
-0.0028926
-0.00243525
-0.00242579
-0.00248507
-0.00257412
-0.00267367
-0.00278094
-0.0028926
-0.00243596
-0.00242629
-0.00248544
-0.00257441
-0.00267393
-0.00278117
-0.00289281
-0.0024374
-0.00242729
-0.00248618
-0.00257503
-0.00267446
-0.00278165
-0.00289326
-0.00265976
-0.00263169
-0.00266011
-0.00271726
-0.00278823
-0.00286983
-0.00295832
-0.0026583
-0.00263059
-0.00265925
-0.00271654
-0.00278762
-0.00286929
-0.00295784
-0.00265758
-0.00263005
-0.00265882
-0.00271619
-0.00278732
-0.00286903
-0.0029576
-0.00265758
-0.00263005
-0.00265882
-0.00271619
-0.00278732
-0.00286903
-0.0029576
-0.0026583
-0.00263059
-0.00265924
-0.00271654
-0.00278762
-0.00286929
-0.00295784
-0.00265975
-0.00263169
-0.0026601
-0.00271725
-0.00278823
-0.00286983
-0.00295832
-0.0028381
-0.00279937
-0.00280706
-0.00284127
-0.00288987
-0.0029501
-0.00301846
-0.00283672
-0.00279827
-0.00280618
-0.00284053
-0.00288923
-0.00294955
-0.00301798
-0.00283604
-0.00279773
-0.00280574
-0.00284016
-0.00288892
-0.00294927
-0.00301774
-0.00283604
-0.00279773
-0.00280574
-0.00284016
-0.00288892
-0.00294927
-0.00301774
-0.00283672
-0.00279827
-0.00280617
-0.00284052
-0.00288923
-0.00294954
-0.00301797
-0.0028381
-0.00279936
-0.00280705
-0.00284126
-0.00288986
-0.00295009
-0.00301846
-0.00298158
-0.00293675
-0.00293045
-0.00294777
-0.00297883
-0.00302149
-0.00307265
-0.00298034
-0.00293574
-0.00292961
-0.00294706
-0.00297822
-0.00302096
-0.00307219
-0.00297973
-0.00293524
-0.00292919
-0.0029467
-0.00297792
-0.00302069
-0.00307196
-0.00297973
-0.00293524
-0.00292919
-0.0029467
-0.00297792
-0.00302069
-0.00307196
-0.00298034
-0.00293574
-0.00292961
-0.00294705
-0.00297822
-0.00302095
-0.00307218
-0.00298157
-0.00293675
-0.00293044
-0.00294777
-0.00297883
-0.00302148
-0.00307264
-0.00383961
-0.00400593
-0.00417595
-0.00434693
-0.00451795
-0.00464132
-0.00462738
-0.00383878
-0.00400496
-0.0041748
-0.00434566
-0.00451662
-0.00464011
-0.00462647
-0.00383836
-0.00400446
-0.00417423
-0.00434502
-0.00451596
-0.00463951
-0.00462602
-0.00383836
-0.00400446
-0.00417423
-0.00434502
-0.00451596
-0.00463951
-0.00462602
-0.00383878
-0.00400495
-0.0041748
-0.00434565
-0.00451661
-0.0046401
-0.00462646
-0.0038396
-0.00400593
-0.00417594
-0.00434693
-0.00451794
-0.00464131
-0.00462737
-0.00376233
-0.00389776
-0.00403011
-0.00415497
-0.00426851
-0.00433649
-0.00430405
-0.00376169
-0.00389702
-0.00402928
-0.00415409
-0.00426763
-0.00433574
-0.00430358
-0.00376136
-0.00389665
-0.00402887
-0.00415365
-0.00426719
-0.00433536
-0.00430334
-0.00376136
-0.00389665
-0.00402887
-0.00415365
-0.00426719
-0.00433536
-0.00430334
-0.00376168
-0.00389702
-0.00402928
-0.00415409
-0.00426763
-0.00433573
-0.00430358
-0.00376233
-0.00389775
-0.0040301
-0.00415497
-0.00426851
-0.00433648
-0.00430404
-0.00368605
-0.00379398
-0.00389473
-0.00398326
-0.00405563
-0.00408995
-0.00404421
-0.00368556
-0.00379345
-0.00389416
-0.00398269
-0.00405509
-0.00408954
-0.00404407
-0.00368531
-0.00379318
-0.00389387
-0.0039824
-0.00405481
-0.00408932
-0.00404399
-0.00368531
-0.00379318
-0.00389387
-0.00398239
-0.00405481
-0.00408932
-0.00404399
-0.00368556
-0.00379345
-0.00389416
-0.00398269
-0.00405508
-0.00408953
-0.00404406
-0.00368604
-0.00379397
-0.00389472
-0.00398326
-0.00405562
-0.00408995
-0.0040442
-0.00361404
-0.00369818
-0.00377303
-0.00383399
-0.00387739
-0.0038869
-0.00383521
-0.00361368
-0.00369781
-0.00377266
-0.00383364
-0.00387709
-0.00388672
-0.00383524
-0.0036135
-0.00369762
-0.00377246
-0.00383345
-0.00387694
-0.00388662
-0.00383525
-0.0036135
-0.00369762
-0.00377246
-0.00383345
-0.00387694
-0.00388662
-0.00383525
-0.00361368
-0.00369781
-0.00377265
-0.00383363
-0.00387709
-0.00388672
-0.00383524
-0.00361404
-0.00369817
-0.00377302
-0.00383398
-0.00387739
-0.00388689
-0.0038352
-0.00354827
-0.0036122