/*--------------------------------*- C++ -*----------------------------------*\
  =========                 |
  \\      /  F ield         | OpenFOAM: The Open Source CFD Toolbox
   \\    /   O peration     | Website:  https://openfoam.org
    \\  /    A nd           | Version:  7
     \\/     M anipulation  |
\*---------------------------------------------------------------------------*/
FoamFile
{
    version     2.0;
    format      ascii;
    class       volVectorField;
    location    "2.25";
    object      U;
}
// * * * * * * * * * * * * * * * * * * * * * * * * * * * * * * * * * * * * * //

dimensions      [0 1 -1 0 0 0 0];

internalField   nonuniform List<vector> 
7784
(
(1.01877 -0.000112378 -0.000256549)
(1.0188 -8.95686e-05 -0.000196055)
(1.01889 -4.879e-05 -8.35054e-05)
(1.01898 -2.38696e-05 -2.31707e-05)
(1.01901 -1.33509e-05 -4.63845e-06)
(1.01901 -8.16744e-06 4.92901e-07)
(1.01902 -5.04017e-06 1.6154e-06)
(1.0188 -0.000102182 -0.000208848)
(1.01884 -8.07636e-05 -0.000160365)
(1.01893 -4.50638e-05 -6.8594e-05)
(1.01899 -2.41449e-05 -1.87349e-05)
(1.01901 -1.50662e-05 -3.16685e-06)
(1.01902 -9.9301e-06 1.13336e-06)
(1.01902 -6.47554e-06 1.87756e-06)
(1.01881 -5.0272e-05 -0.000188741)
(1.01886 -4.17772e-05 -0.000144957)
(1.01894 -2.84476e-05 -6.0997e-05)
(1.019 -1.89664e-05 -1.57668e-05)
(1.01902 -1.32486e-05 -1.91412e-06)
(1.01902 -9.27703e-06 1.72613e-06)
(1.01902 -6.40868e-06 2.15344e-06)
(1.01882 -3.06391e-05 -0.000181312)
(1.01887 -2.67494e-05 -0.000138963)
(1.01895 -2.0446e-05 -5.75444e-05)
(1.01901 -1.50685e-05 -1.40944e-05)
(1.01902 -1.11138e-05 -1.09247e-06)
(1.01902 -8.12291e-06 2.15207e-06)
(1.01902 -5.84869e-06 2.37866e-06)
(1.01883 -2.12277e-05 -0.000178356)
(1.01888 -1.89436e-05 -0.000136466)
(1.01896 -1.52871e-05 -5.59322e-05)
(1.01901 -1.18636e-05 -1.31975e-05)
(1.01903 -9.09223e-06 -5.97999e-07)
(1.01903 -6.86989e-06 2.43592e-06)
(1.01903 -5.09506e-06 2.54544e-06)
(1.01883 -1.48857e-05 -0.000177142)
(1.01888 -1.34682e-05 -0.000135405)
(1.01896 -1.1267e-05 -5.51807e-05)
(1.01902 -9.08441e-06 -1.27246e-05)
(1.01903 -7.17981e-06 -3.04473e-07)
(1.01903 -5.56579e-06 2.62231e-06)
(1.01903 -4.22095e-06 2.6648e-06)
(1.01883 -1.03365e-05 -0.000176627)
(1.01888 -9.45808e-06 -0.000134934)
(1.01896 -8.10271e-06 -5.48153e-05)
(1.01902 -6.70109e-06 -1.24667e-05)
(1.01903 -5.41104e-06 -1.26945e-07)
(1.01903 -4.27287e-06 2.74473e-06)
(1.01903 -3.29403e-06 2.74864e-06)
(0.369266 -0.000120753 -0.000488013)
(0.369269 -9.85109e-05 -0.000368009)
(0.369354 -6.05869e-05 -0.000170677)
(0.369464 -3.40501e-05 -6.94914e-05)
(0.369526 -2.04006e-05 -3.34659e-05)
(0.369564 -1.27247e-05 -1.77904e-05)
(0.369592 -7.98236e-06 -1.02077e-05)
(0.369299 -0.000117869 -0.000407602)
(0.369311 -9.63409e-05 -0.000309905)
(0.36939 -6.18524e-05 -0.000146637)
(0.369483 -3.7735e-05 -6.18023e-05)
(0.369536 -2.4403e-05 -3.0385e-05)
(0.36957 -1.60572e-05 -1.62848e-05)
(0.369595 -1.05039e-05 -9.52696e-06)
(0.369321 -7.83634e-05 -0.000369686)
(0.369337 -6.62398e-05 -0.000281688)
(0.369413 -4.78441e-05 -0.00013254)
(0.369498 -3.30967e-05 -5.56786e-05)
(0.369546 -2.3041e-05 -2.73812e-05)
(0.369577 -1.59381e-05 -1.47102e-05)
(0.3696 -1.09003e-05 -8.71906e-06)
(0.369333 -5.49435e-05 -0.000353297)
(0.369352 -4.78759e-05 -0.000268728)
(0.369427 -3.71192e-05 -0.000124878)
(0.369509 -2.74974e-05 -5.16105e-05)
(0.369553 -2.00825e-05 -2.51484e-05)
(0.369582 -1.44634e-05 -1.34494e-05)
(0.369604 -1.02512e-05 -8.00365e-06)
(0.36934 -3.98076e-05 -0.000345465)
(0.369361 -3.53222e-05 -0.000262252)
(0.369435 -2.8561e-05 -0.000120614)
(0.369516 -2.21099e-05 -4.90642e-05)
(0.369559 -1.67573e-05 -2.36221e-05)
(0.369587 -1.24668e-05 -1.25183e-05)
(0.369607 -9.08665e-06 -7.4333e-06)
(0.369344 -2.8514e-05 -0.000341601)
(0.369366 -2.56535e-05 -0.000258962)
(0.369441 -2.13934e-05 -0.000118263)
(0.369521 -1.71324e-05 -4.75138e-05)
(0.369564 -1.33765e-05 -2.26098e-05)
(0.36959 -1.02112e-05 -1.18555e-05)
(0.36961 -7.60923e-06 -7.00167e-06)
(0.369347 -1.99616e-05 -0.000339632)
(0.369369 -1.81608e-05 -0.000257228)
(0.369445 -1.54798e-05 -0.000116935)
(0.369525 -1.26993e-05 -4.65644e-05)
(0.369567 -1.01343e-05 -2.19455e-05)
(0.369593 -7.8872e-06 -1.13955e-05)
(0.369612 -5.97718e-06 -6.68748e-06)
(0.101266 -7.59037e-05 -0.000447076)
(0.101226 -6.51524e-05 -0.000360709)
(0.101251 -4.49298e-05 -0.000221436)
(0.101316 -2.83368e-05 -0.000133321)
(0.101367 -1.82095e-05 -8.48494e-05)
(0.101404 -1.18658e-05 -5.5016e-05)
(0.101433 -7.71398e-06 -3.63063e-05)
(0.10128 -8.16833e-05 -0.000397301)
(0.101245 -7.00857e-05 -0.000324197)
(0.10127 -4.99732e-05 -0.000203627)
(0.101329 -3.34157e-05 -0.000125621)
(0.101374 -2.26403e-05 -8.09388e-05)
(0.101409 -1.53465e-05 -5.29121e-05)
(0.101436 -1.0299e-05 -3.52151e-05)
(0.101292 -6.57361e-05 -0.000366907)
(0.101262 -5.68557e-05 -0.000300936)
(0.101286 -4.31879e-05 -0.000190149)
(0.101341 -3.11753e-05 -0.000118349)
(0.101383 -2.22547e-05 -7.68077e-05)
(0.101415 -1.56838e-05 -5.05524e-05)
(0.101441 -1.08845e-05 -3.38856e-05)
(0.101301 -5.08504e-05 -0.000350038)
(0.101273 -4.46717e-05 -0.000287279)
(0.101298 -3.55092e-05 -0.000181191)
(0.10135 -2.69352e-05 -0.000112889)
(0.10139 -1.99938e-05 -7.34792e-05)
(0.101421 -1.45694e-05 -4.85328e-05)
(0.101445 -1.04092e-05 -3.26683e-05)
(0.101307 -3.87604e-05 -0.000340192)
(0.10128 -3.45213e-05 -0.000279041)
(0.101305 -2.83327e-05 -0.000175378)
(0.101357 -2.22669e-05 -0.000109069)
(0.101395 -1.70543e-05 -7.10035e-05)
(0.101425 -1.27767e-05 -4.69423e-05)
(0.101448 -9.3499e-06 -3.16566e-05)
(0.101311 -2.87677e-05 -0.000334489)
(0.101285 -2.59187e-05 -0.000274157)
(0.101311 -2.17971e-05 -0.000171725)
(0.101362 -1.76096e-05 -0.000106504)
(0.1014 -1.38329e-05 -6.92422e-05)
(0.101429 -1.05991e-05 -4.57517e-05)
(0.101451 -7.9092e-06 -3.08643e-05)
(0.101313 -2.06201e-05 -0.000331169)
(0.101288 -1.8754e-05 -0.000271247)
(0.101314 -1.60555e-05 -0.000169443)
(0.101365 -1.32359e-05 -0.000104814)
(0.101403 -1.05976e-05 -6.80262e-05)
(0.101431 -8.26156e-06 -4.48952e-05)
(0.101453 -6.25895e-06 -3.02732e-05)
(1.01902 -3.14299e-06 1.24176e-06)
(1.01902 -1.94575e-06 4.84635e-07)
(1.01902 -1.11315e-06 -3.09878e-07)
(1.01903 -4.62926e-07 -1.13405e-06)
(1.01903 1.25536e-07 -2.12514e-06)
(1.01903 7.48664e-07 -3.43067e-06)
(1.01902 -4.22258e-06 1.34132e-06)
(1.01902 -2.71012e-06 5.2843e-07)
(1.01902 -1.61118e-06 -2.85083e-07)
(1.01903 -7.36507e-07 -1.11757e-06)
(1.01903 4.55809e-08 -2.11064e-06)
(1.01903 8.38072e-07 -3.41804e-06)
(1.01902 -4.37566e-06 1.46994e-06)
(1.01902 -2.9023e-06 5.92519e-07)
(1.01903 -1.78054e-06 -2.5132e-07)
(1.01903 -8.68086e-07 -1.10064e-06)
(1.01903 -5.66556e-08 -2.10375e-06)
(1.01903 7.44566e-07 -3.42422e-06)
(1.01902 -4.12949e-06 1.59072e-06)
(1.01903 -2.81322e-06 6.58566e-07)
(1.01903 -1.77329e-06 -2.1548e-07)
(1.01903 -9.09599e-07 -1.08348e-06)
(1.01903 -1.39825e-07 -2.0997e-06)
(1.01903 6.0666e-07 -3.43401e-06)
(1.01903 -3.68723e-06 1.68866e-06)
(1.01903 -2.56539e-06 7.15756e-07)
(1.01903 -1.6523e-06 -1.8293e-07)
(1.01903 -8.79508e-07 -1.06706e-06)
(1.01903 -1.8672e-07 -2.09475e-06)
(1.01903 4.78737e-07 -3.43867e-06)
(1.01903 -3.11351e-06 1.76372e-06)
(1.01903 -2.20271e-06 7.61916e-07)
(1.01903 -1.44301e-06 -1.55555e-07)
(1.01903 -7.89377e-07 -1.05253e-06)
(1.01903 -1.99381e-07 -2.08953e-06)
(1.01903 3.64793e-07 -3.44015e-06)
(1.01903 -2.46488e-06 1.81923e-06)
(1.01903 -1.76623e-06 7.97389e-07)
(1.01903 -1.1722e-06 -1.33831e-07)
(1.01903 -6.54263e-07 -1.04054e-06)
(1.01903 -1.83795e-07 -2.08473e-06)
(1.01904 2.65205e-07 -3.44007e-06)
(0.369611 -5.0166e-06 -6.643e-06)
(0.369623 -3.06604e-06 -4.77257e-06)
(0.36963 -1.6635e-06 -3.64831e-06)
(0.369634 -5.28065e-07 -2.93693e-06)
(0.369633 5.54292e-07 -2.51402e-06)
(0.369629 1.77277e-06 -2.22996e-06)
(0.369613 -6.82912e-06 -6.34187e-06)
(0.369624 -4.29405e-06 -4.6283e-06)
(0.369631 -2.41017e-06 -3.57609e-06)
(0.369635 -8.64819e-07 -2.90745e-06)
(0.369634 5.89853e-07 -2.51761e-06)
(0.36963 2.16916e-06 -2.28886e-06)
(0.369616 -7.3366e-06 -5.92256e-06)
(0.369627 -4.73661e-06 -4.40531e-06)
(0.369633 -2.73146e-06 -3.46259e-06)
(0.369636 -1.05515e-06 -2.8672e-06)
(0.369636 5.12168e-07 -2.53943e-06)
(0.369632 2.16725e-06 -2.39612e-06)
(0.369619 -7.09934e-06 -5.51366e-06)
(0.369629 -4.69059e-06 -4.17284e-06)
(0.369635 -2.77015e-06 -3.33929e-06)
(0.369638 -1.13477e-06 -2.82177e-06)
(0.369637 3.91602e-07 -2.56094e-06)
(0.369634 1.97004e-06 -2.49942e-06)
(0.369622 -6.43906e-06 -5.16585e-06)
(0.369631 -4.3373e-06 -3.96505e-06)
(0.369637 -2.61307e-06 -3.22435e-06)
(0.369639 -1.12009e-06 -2.77581e-06)
(0.369639 2.74642e-07 -2.57427e-06)
(0.369635 1.69517e-06 -2.57905e-06)
(0.369624 -5.49301e-06 -4.88897e-06)
(0.369633 -3.7592e-06 -3.79281e-06)
(0.369638 -2.30222e-06 -3.12561e-06)
(0.36964 -1.02236e-06 -2.73359e-06)
(0.36964 1.75562e-07 -2.58084e-06)
(0.369637 1.38165e-06 -2.63704e-06)
(0.369625 -4.37714e-06 -4.67935e-06)
(0.369634 -3.03312e-06 -3.65822e-06)
(0.369639 -1.88185e-06 -3.04622e-06)
(0.369642 -8.58659e-07 -2.69785e-06)
(0.369641 1.01003e-07 -2.58303e-06)
(0.369638 1.05909e-06 -2.67757e-06)
(0.101453 -4.96367e-06 -2.4124e-05)
(0.101467 -3.05905e-06 -1.54954e-05)
(0.101474 -1.63429e-06 -8.80492e-06)
(0.101476 -4.45931e-07 -3.07744e-06)
(0.101473 7.08945e-07 2.52485e-06)
(0.101465 2.00539e-06 8.78284e-06)
(0.101456 -6.80321e-06 -2.35535e-05)
(0.101468 -4.29257e-06 -1.51949e-05)
(0.101475 -2.36808e-06 -8.65895e-06)
(0.101477 -7.4957e-07 -3.0347e-06)
(0.101474 8.05376e-07 2.46169e-06)
(0.101466 2.499e-06 8.57562e-06)
(0.101459 -7.38351e-06 -2.28012e-05)
(0.10147 -4.7599e-06 -1.47748e-05)
(0.101477 -2.68947e-06 -8.44596e-06)
(0.101479 -9.22422e-07 -2.97033e-06)
(0.101476 7.62212e-07 2.38088e-06)
(0.101468 2.55749e-06 8.31259e-06)
(0.101462 -7.22991e-06 -2.20708e-05)
(0.101473 -4.75387e-06 -1.43479e-05)
(0.101479 -2.74447e-06 -8.22084e-06)
(0.101481 -1.00362e-06 -2.89653e-06)
(0.101478 6.50321e-07 2.30986e-06)
(0.10147 2.3787e-06 8.07027e-06)
(0.101464 -6.62483e-06 -2.14354e-05)
(0.101475 -4.43093e-06 -1.39622e-05)
(0.101481 -2.60576e-06 -8.01017e-06)
(0.101482 -1.00246e-06 -2.8217e-06)
(0.101479 5.18715e-07 2.25599e-06)
(0.101472 2.08345e-06 7.87043e-06)
(0.101467 -5.69713e-06 -2.09181e-05)
(0.101477 -3.86537e-06 -1.3638e-05)
(0.101482 -2.30879e-06 -7.82767e-06)
(0.101484 -9.24807e-07 -2.75251e-06)
(0.101481 3.87884e-07 2.21836e-06)
(0.101473 1.72143e-06 7.71571e-06)
(0.101468 -4.56731e-06 -2.05201e-05)
(0.101478 -3.13444e-06 -1.33819e-05)
(0.101484 -1.89581e-06 -7.67985e-06)
(0.101485 -7.83625e-07 -2.69348e-06)
(0.101482 2.71523e-07 2.19384e-06)
(0.101475 1.33337e-06 7.60198e-06)
(1.01903 1.542e-06 -4.97883e-06)
(1.01904 2.72989e-06 -6.42761e-06)
(1.01904 4.58446e-06 -6.11337e-06)
(1.01904 8.06177e-06 1.89419e-06)
(1.01898 1.88621e-05 3.69811e-05)
(1.01887 4.42212e-05 0.000131999)
(1.01884 6.38781e-05 0.00024846)
(1.01903 1.7803e-06 -4.98326e-06)
(1.01904 3.06574e-06 -6.50579e-06)
(1.01904 4.91953e-06 -6.45442e-06)
(1.01904 7.89978e-06 5.36354e-07)
(1.019 1.67166e-05 3.1435e-05)
(1.01889 3.83429e-05 0.00011584)
(1.01885 5.59927e-05 0.000223718)
(1.01904 1.64451e-06 -5.03191e-06)
(1.01904 2.75239e-06 -6.63539e-06)
(1.01904 4.26202e-06 -6.84666e-06)
(1.01905 6.34978e-06 -5.54215e-07)
(1.019 1.04264e-05 2.82771e-05)
(1.0189 1.86137e-05 0.000108455)
(1.01885 2.5913e-05 0.000213082)
(1.01904 1.40965e-06 -5.07638e-06)
(1.01904 2.34532e-06 -6.73633e-06)
(1.01905 3.54228e-06 -7.10686e-06)
(1.01905 5.0961e-06 -1.13472e-06)
(1.01901 7.5427e-06 2.69013e-05)
(1.0189 1.15671e-05 0.000105609)
(1.01886 1.52611e-05 0.000209089)
(1.01904 1.17553e-06 -5.09955e-06)
(1.01904 1.9653e-06 -6.79769e-06)
(1.01905 2.92787e-06 -7.25721e-06)
(1.01905 4.12085e-06 -1.42356e-06)
(1.01901 5.80351e-06 2.63008e-05)
(1.01891 8.18466e-06 0.000104478)
(1.01886 1.03513e-05 0.000207534)
(1.01904 9.46016e-07 -5.11218e-06)
(1.01904 1.58816e-06 -6.83451e-06)
(1.01905 2.34568e-06 -7.34528e-06)
(1.01905 3.23938e-06 -1.57147e-06)
(1.01901 4.38815e-06 2.60293e-05)
(1.01891 5.83787e-06 0.000104018)
(1.01886 7.13871e-06 0.000206924)
(1.01904 7.22573e-07 -5.11896e-06)
(1.01904 1.21685e-06 -6.85421e-06)
(1.01905 1.78826e-06 -7.39757e-06)
(1.01905 2.43533e-06 -1.64964e-06)
(1.01901 3.21234e-06 2.59023e-05)
(1.01891 4.11593e-06 0.000103824)
(1.01886 4.9091e-06 0.000206681)
(0.369621 3.3953e-06 -1.50449e-06)
(0.369606 5.84611e-06 1.30803e-06)
(0.369584 9.71675e-06 1.10082e-05)
(0.369545 1.66149e-05 4.10467e-05)
(0.36946 3.22612e-05 0.00012782)
(0.369379 5.96827e-05 0.000319587)
(0.36942 7.74753e-05 0.000527938)
(0.369622 4.15075e-06 -1.69521e-06)
(0.369608 6.96116e-06 7.77974e-07)
(0.369588 1.10712e-05 9.62548e-06)
(0.369554 1.76453e-05 3.7105e-05)
(0.369479 3.1489e-05 0.000114978)
(0.369397 5.6068e-05 0.000286666)
(0.369426 7.30756e-05 0.000479502)
(0.369624 4.12974e-06 -1.96898e-06)
(0.369611 6.72017e-06 1.65627e-07)
(0.369592 1.02742e-05 8.22799e-06)
(0.36956 1.54054e-05 3.38583e-05)
(0.369489 2.37426e-05 0.000107075)
(0.369408 3.62751e-05 0.000270208)
(0.369432 4.57421e-05 0.000456647)
(0.369626 3.76725e-06 -2.20928e-06)
(0.369614 5.99687e-06 -3.17189e-07)
(0.369596 8.88597e-06 7.24648e-06)
(0.369565 1.2799e-05 3.1888e-05)
(0.369496 1.82927e-05 0.000103056)
(0.369415 2.54733e-05 0.000262866)
(0.369436 3.10226e-05 0.000446835)
(0.369628 3.26487e-06 -2.38683e-06)
(0.369616 5.12112e-06 -6.59055e-07)
(0.369598 7.40944e-06 6.60585e-06)
(0.369569 1.03388e-05 3.07285e-05)
(0.3695 1.41022e-05 0.000100944)
(0.369419 1.85704e-05 0.000259351)
(0.369439 2.2028e-05 0.000442268)
(0.36963 2.68259e-06 -2.51442e-06)
(0.369618 4.16716e-06 -8.95319e-07)
(0.369601 5.91702e-06 6.19054e-06)
(0.369572 8.04213e-06 3.00405e-05)
(0.369503 1.05791e-05 9.98109e-05)
(0.369422 1.33774e-05 0.000257624)
(0.369441 1.55352e-05 0.000440098)
(0.369631 2.07369e-06 -2.60341e-06)
(0.369619 3.20128e-06 -1.05381e-06)
(0.369602 4.48154e-06 5.92284e-06)
(0.369573 5.97294e-06 2.96277e-05)
(0.369505 7.65764e-06 9.9186e-05)
(0.369424 9.41627e-06 0.000256744)
(0.369443 1.07574e-05 0.000439033)
(0.10145 3.68643e-06 1.69278e-05)
(0.101427 6.10326e-06 2.94471e-05)
(0.101395 9.72557e-06 5.13723e-05)
(0.101349 1.55689e-05 9.28902e-05)
(0.101283 2.62363e-05 0.000177522)
(0.101247 4.08384e-05 0.000334593)
(0.10131 4.75366e-05 0.000493605)
(0.101452 4.59606e-06 1.6464e-05)
(0.10143 7.45709e-06 2.84682e-05)
(0.101399 1.14935e-05 4.94008e-05)
(0.101356 1.74821e-05 8.8714e-05)
(0.101293 2.77255e-05 0.000166869)
(0.101255 4.19064e-05 0.000310479)
(0.101312 4.92505e-05 0.000459203)
(0.101454 4.68785e-06 1.59156e-05)
(0.101433 7.43669e-06 2.73953e-05)
(0.101403 1.11168e-05 4.73715e-05)
(0.101362 1.6151e-05 8.48337e-05)
(0.101302 2.33848e-05 0.00015906)
(0.101263 3.2512e-05 0.000295925)
(0.101315 3.8475e-05 0.000439419)
(0.101457 4.35659e-06 1.54291e-05)
(0.101436 6.78433e-06 2.65038e-05)
(0.101407 9.87428e-06 4.57964e-05)
(0.101367 1.38657e-05 8.20449e-05)
(0.101308 1.90326e-05 0.000154127)
(0.101268 2.50295e-05 0.000287805)
(0.101319 2.92801e-05 0.000428891)
(0.101459 3.82179e-06 1.5034e-05)
(0.101438 5.86871e-06 2.5816e-05)
(0.10141 8.35677e-06 4.46493e-05)
(0.10137 1.14109e-05 8.01393e-05)
(0.101312 1.50981e-05 0.000151015)
(0.101272 1.91145e-05 0.000283066)
(0.101322 2.20267e-05 0.000422935)
(0.10146 3.1674e-06 1.47316e-05)
(0.10144 4.81331e-06 2.5308e-05)
(0.101412 6.7348e-06 4.38426e-05)
(0.101373 8.987e-06 7.88763e-05)
(0.101315 1.15547e-05 0.000149095)
(0.101275 1.42154e-05 0.000280333)
(0.101324 1.61586e-05 0.000419595)
(0.101462 2.4632e-06 1.45104e-05)
(0.101442 3.71558e-06 2.49454e-05)
(0.101414 5.13053e-06 4.32906e-05)
(0.101375 6.72864e-06 7.80531e-05)
(0.101317 8.47247e-06 0.000147914)
(0.101277 1.02112e-05 0.000278744)
(0.101325 1.14773e-05 0.000417707)
(1.01883 -6.83759e-06 -0.000176394)
(1.01888 -6.30385e-06 -0.000134709)
(1.01896 -5.47905e-06 -5.46268e-05)
(1.01902 -4.60326e-06 -1.23216e-05)
(1.01903 -3.77024e-06 -1.9123e-08)
(1.01903 -3.01536e-06 2.82376e-06)
(1.01903 -2.35142e-06 2.80545e-06)
(1.01883 -3.90951e-06 -0.000176285)
(1.01888 -3.6204e-06 -0.000134599)
(1.01896 -3.17313e-06 -5.45293e-05)
(1.01902 -2.69103e-06 -1.22421e-05)
(1.01903 -2.22352e-06 4.30764e-08)
(1.01903 -1.79265e-06 2.87124e-06)
(1.01903 -1.40813e-06 2.84073e-06)
(1.01883 -1.27235e-06 -0.00017624)
(1.01888 -1.18054e-06 -0.000134553)
(1.01896 -1.03863e-06 -5.44871e-05)
(1.01902 -8.84659e-07 -1.22066e-05)
(1.01903 -7.33979e-07 7.16747e-08)
(1.01903 -5.93969e-07 2.89359e-06)
(1.01903 -4.68126e-07 2.85763e-06)
(1.01883 1.27443e-06 -0.00017624)
(1.01888 1.18316e-06 -0.000134553)
(1.01896 1.04134e-06 -5.44871e-05)
(1.01902 8.87251e-07 -1.22066e-05)
(1.01903 7.36413e-07 7.16637e-08)
(1.01903 5.9623e-07 2.89358e-06)
(1.01903 4.70217e-07 2.85762e-06)
(1.01883 3.91164e-06 -0.000176285)
(1.01888 3.6231e-06 -0.000134599)
(1.01896 3.17592e-06 -5.45293e-05)
(1.01902 2.69369e-06 -1.22422e-05)
(1.01903 2.226e-06 4.30426e-08)
(1.01903 1.79494e-06 2.87121e-06)
(1.01903 1.41024e-06 2.8407e-06)
(1.01883 6.83984e-06 -0.000176394)
(1.01888 6.30673e-06 -0.000134709)
(1.01896 5.482e-06 -5.46269e-05)
(1.01902 4.60605e-06 -1.23217e-05)
(1.01903 3.77282e-06 -1.91834e-08)
(1.01903 3.01771e-06 2.8237e-06)
(1.01903 2.35356e-06 2.80542e-06)
(0.369348 -1.3214e-05 -0.000338585)
(0.369371 -1.21169e-05 -0.000256279)
(0.369447 -1.0478e-05 -0.00011617)
(0.369527 -8.73533e-06 -4.59855e-05)
(0.369569 -7.07725e-06 -2.15197e-05)
(0.369594 -5.58383e-06 -1.10882e-05)
(0.369614 -4.2829e-06 -6.47006e-06)
(0.369349 -7.54573e-06 -0.000338035)
(0.369373 -6.95326e-06 -0.00025577)
(0.369449 -6.06568e-06 -0.000115745)
(0.369528 -5.10733e-06 -4.56522e-05)
(0.36957 -4.17759e-06 -2.12662e-05)
(0.369596 -3.32494e-06 -1.08999e-05)
(0.369615 -2.57011e-06 -6.33361e-06)
(0.36935 -2.45357e-06 -0.000337795)
(0.369373 -2.26601e-06 -0.000255545)
(0.369449 -1.98488e-06 -0.000115555)
(0.369529 -1.67913e-06 -4.54995e-05)
(0.36957 -1.37972e-06 -2.11478e-05)
(0.369596 -1.10269e-06 -1.08105e-05)
(0.369615 -8.55468e-07 -6.2679e-06)
(0.36935 2.45695e-06 -0.000337795)
(0.369373 2.27008e-06 -0.000255545)
(0.369449 1.98892e-06 -0.000115555)
(0.369529 1.68293e-06 -4.54995e-05)
(0.36957 1.38322e-06 -2.11479e-05)
(0.369596 1.10586e-06 -1.08105e-05)
(0.369615 8.58343e-07 -6.26793e-06)
(0.369349 7.54917e-06 -0.000338035)
(0.369373 6.9574e-06 -0.00025577)
(0.369449 6.06979e-06 -0.000115745)
(0.369528 5.11119e-06 -4.56523e-05)
(0.36957 4.18113e-06 -2.12663e-05)
(0.369596 3.32814e-06 -1.09e-05)
(0.369615 2.57299e-06 -6.33369e-06)
(0.369348 1.32176e-05 -0.000338585)
(0.369371 1.21212e-05 -0.000256279)
(0.369447 1.04823e-05 -0.00011617)
(0.369527 8.73934e-06 -4.59857e-05)
(0.369569 7.0809e-06 -2.15199e-05)
(0.369594 5.5871e-06 -1.10883e-05)
(0.369614 4.28581e-06 -6.47017e-06)
(0.101315 -1.38462e-05 -0.000329228)
(0.10129 -1.26806e-05 -0.000269512)
(0.101317 -1.09898e-05 -0.000168036)
(0.101368 -9.18717e-06 -0.000103732)
(0.101405 -7.45599e-06 -6.72196e-05)
(0.101433 -5.88503e-06 -4.43091e-05)
(0.101455 -4.50783e-06 -2.98573e-05)
(0.101315 -7.97122e-06 -0.000328144)
(0.101292 -7.33282e-06 -0.000268532)
(0.101318 -6.40401e-06 -0.000167222)
(0.101369 -5.40085e-06 -0.000103089)
(0.101406 -4.42118e-06 -6.67289e-05)
(0.101434 -3.5177e-06 -4.39445e-05)
(0.101456 -2.71381e-06 -2.95937e-05)
(0.101316 -2.60156e-06 -0.000327658)
(0.101292 -2.39821e-06 -0.000268088)
(0.101319 -2.10208e-06 -0.000166848)
(0.10137 -1.78025e-06 -0.00010279)
(0.101407 -1.46339e-06 -6.6497e-05)
(0.101435 -1.16882e-06 -4.377e-05)
(0.101456 -9.04787e-07 -2.94659e-05)
(0.101316 2.6052e-06 -0.000327658)
(0.101292 2.40239e-06 -0.000268088)
(0.101319 2.10617e-06 -0.000166848)
(0.10137 1.78406e-06 -0.00010279)
(0.101407 1.46684e-06 -6.6497e-05)
(0.101435 1.17191e-06 -4.37701e-05)
(0.101456 9.07527e-07 -2.9466e-05)
(0.101315 7.97489e-06 -0.000328144)
(0.101292 7.33706e-06 -0.000268532)
(0.101318 6.40816e-06 -0.000167222)
(0.101369 5.4047e-06 -0.000103089)
(0.101406 4.42467e-06 -6.67291e-05)
(0.101434 3.5208e-06 -4.39447e-05)
(0.101456 2.71655e-06 -2.95938e-05)
(0.101315 1.38499e-05 -0.000329228)
(0.10129 1.26849e-05 -0.000269513)
(0.101317 1.0994e-05 -0.000168036)
(0.101368 9.19114e-06 -0.000103732)
(0.101405 7.45956e-06 -6.72199e-05)
(0.101433 5.88818e-06 -4.43094e-05)
(0.101455 4.51059e-06 -2.98576e-05)
(1.01903 -1.77753e-06 1.85824e-06)
(1.01903 -1.28545e-06 8.23006e-07)
(1.01903 -8.61128e-07 -1.17784e-07)
(1.01903 -4.87462e-07 -1.03144e-06)
(1.01903 -1.46346e-07 -2.08079e-06)
(1.01904 1.7904e-07 -3.43938e-06)
(1.01903 -1.07139e-06 1.88305e-06)
(1.01903 -7.7935e-07 8.39594e-07)
(1.01903 -5.25201e-07 -1.07231e-07)
(1.01903 -2.99904e-07 -1.02534e-06)
(1.01903 -9.35138e-08 -2.07803e-06)
(1.01904 1.03358e-07 -3.43872e-06)
(1.01903 -3.57209e-07 1.8951e-06)
(1.01903 -2.60478e-07 8.4773e-07)
(1.01903 -1.75908e-07 -1.02008e-07)
(1.01903 -1.00687e-07 -1.02228e-06)
(1.01903 -3.16506e-08 -2.07662e-06)
(1.01904 3.42134e-08 -3.43833e-06)
(1.01903 3.59139e-07 1.89509e-06)
(1.01903 2.62262e-07 8.4772e-07)
(1.01903 1.7758e-07 -1.02017e-07)
(1.01903 1.02272e-07 -1.02229e-06)
(1.01903 3.31777e-08 -2.07663e-06)
(1.01904 -3.27201e-08 -3.43834e-06)
(1.01903 1.07333e-06 1.88303e-06)
(1.01903 7.81135e-07 8.3957e-07)
(1.01903 5.26866e-07 -1.07256e-07)
(1.01903 3.01475e-07 -1.02536e-06)
(1.01903 9.50253e-08 -2.07805e-06)
(1.01904 -1.01881e-07 -3.43872e-06)
(1.01903 1.77948e-06 1.85822e-06)
(1.01903 1.28723e-06 8.22976e-07)
(1.01903 8.62777e-07 -1.17818e-07)
(1.01903 4.89014e-07 -1.03147e-06)
(1.01903 1.47831e-07 -2.08081e-06)
(1.01904 -1.77596e-07 -3.43938e-06)
(0.369627 -3.16916e-06 -4.53002e-06)
(0.369635 -2.21625e-06 -3.56005e-06)
(0.36964 -1.38834e-06 -2.98705e-06)
(0.369642 -6.4606e-07 -2.67018e-06)
(0.369642 5.14e-08 -2.58285e-06)
(0.369639 7.43675e-07 -2.70452e-06)
(0.369628 -1.9146e-06 -4.43443e-06)
(0.369636 -1.34691e-06 -3.49618e-06)
(0.369641 -8.49049e-07 -2.94796e-06)
(0.369643 -4.00079e-07 -2.65141e-06)
(0.369642 2.23403e-08 -2.58191e-06)
(0.369639 4.40089e-07 -2.72092e-06)
(0.369628 -6.3926e-07 -4.38786e-06)
(0.369636 -4.50893e-07 -3.46477e-06)
(0.369641 -2.84916e-07 -2.92856e-06)
(0.369643 -1.34797e-07 -2.64195e-06)
(0.369643 6.54589e-09 -2.58121e-06)
(0.369639 1.46092e-07 -2.72866e-06)
(0.369628 6.41849e-07 -4.38788e-06)
(0.369636 4.53232e-07 -3.46479e-06)
(0.369641 2.87055e-07 -2.92858e-06)
(0.369643 1.36775e-07 -2.64197e-06)
(0.369643 -4.69982e-09 -2.58123e-06)
(0.369639 -1.44329e-07 -2.72867e-06)
(0.369628 1.91719e-06 -4.43449e-06)
(0.369636 1.34925e-06 -3.49624e-06)
(0.369641 8.51174e-07 -2.94802e-06)
(0.369643 4.02033e-07 -2.65146e-06)
(0.369642 -2.05143e-08 -2.58194e-06)
(0.369639 -4.38341e-07 -2.72092e-06)
(0.369627 3.17176e-06 -4.53011e-06)
(0.369635 2.21858e-06 -3.56014e-06)
(0.36964 1.39044e-06 -2.98713e-06)
(0.369642 6.47988e-07 -2.67024e-06)
(0.369642 -4.95923e-08 -2.58288e-06)
(0.369639 -7.4194e-07 -2.70451e-06)
(0.10147 -3.32098e-06 -2.02333e-05)
(0.101479 -2.29858e-06 -1.31936e-05)
(0.101485 -1.40339e-06 -7.56904e-06)
(0.101486 -5.93581e-07 -2.64747e-06)
(0.101483 1.75042e-07 2.17893e-06)
(0.101475 9.43362e-07 7.5232e-06)
(0.101471 -2.01179e-06 -2.00484e-05)
(0.10148 -1.40025e-06 -1.30704e-05)
(0.101485 -8.60223e-07 -7.49555e-06)
(0.101486 -3.69264e-07 -2.6161e-06)
(0.101484 9.69153e-08 2.17067e-06)
(0.101476 5.60917e-07 7.47393e-06)
(0.101471 -6.72693e-07 -1.9958e-05)
(0.101481 -4.69378e-07 -1.30097e-05)
(0.101486 -2.8907e-07 -7.459e-06)
(0.101487 -1.24741e-07 -2.60025e-06)
(0.101484 3.1335e-08 2.16704e-06)
(0.101476 1.86377e-07 7.45027e-06)
(0.101471 6.75112e-07 -1.9958e-05)
(0.101481 4.71508e-07 -1.30097e-05)
(0.101486 2.90971e-07 -7.45904e-06)
(0.101487 1.26429e-07 -2.60029e-06)
(0.101484 -2.98243e-08 2.16701e-06)
(0.101476 -1.84983e-07 7.45025e-06)
(0.101471 2.01422e-06 -2.00485e-05)
(0.10148 1.40237e-06 -1.30705e-05)
(0.101485 8.62105e-07 -7.49565e-06)
(0.101486 3.70932e-07 -2.6162e-06)
(0.101484 -9.54097e-08 2.1706e-06)
(0.101476 -5.5952e-07 7.47387e-06)
(0.10147 3.3234e-06 -2.02335e-05)
(0.101479 2.3007e-06 -1.31937e-05)
(0.101485 1.40526e-06 -7.5692e-06)
(0.101486 5.95233e-07 -2.64761e-06)
(0.101483 -1.73543e-07 2.17882e-06)
(0.101475 -9.41963e-07 7.52311e-06)
(1.01904 5.08024e-07 -5.12245e-06)
(1.01904 8.5834e-07 -6.86407e-06)
(1.01905 1.25657e-06 -7.42873e-06)
(1.01905 1.69498e-06 -1.69236e-06)
(1.01901 2.19856e-06 2.58395e-05)
(1.01891 2.75388e-06 0.000103737)
(1.01886 3.23074e-06 0.000206578)
(1.01904 3.01563e-07 -5.12434e-06)
(1.01904 5.10959e-07 -6.86982e-06)
(1.01905 7.45466e-07 -7.44672e-06)
(1.01905 9.99287e-07 -1.71549e-06)
(1.01901 1.28304e-06 2.58079e-05)
(1.01891 1.58615e-06 0.000103697)
(1.01886 1.84235e-06 0.000206533)
(1.01904 1.00397e-07 -5.12521e-06)
(1.01904 1.70056e-07 -6.87259e-06)
(1.01905 2.47455e-07 -7.45506e-06)
(1.01905 3.30539e-07 -1.72581e-06)
(1.01901 4.22225e-07 2.57944e-05)
(1.01891 5.18736e-07 0.00010368)
(1.01886 5.99664e-07 0.000206516)
(1.01904 -9.89272e-08 -5.12521e-06)
(1.01904 -1.68608e-07 -6.87259e-06)
(1.01905 -2.46025e-07 -7.45506e-06)
(1.01905 -3.29116e-07 -1.72581e-06)
(1.01901 -4.20787e-07 2.57944e-05)
(1.01891 -5.17191e-07 0.00010368)
(1.01886 -5.9798e-07 0.000206516)
(1.01904 -3.00111e-07 -5.12433e-06)
(1.01904 -5.09526e-07 -6.86981e-06)
(1.01905 -7.44045e-07 -7.44671e-06)
(1.01905 -9.97866e-07 -1.71549e-06)
(1.01901 -1.28159e-06 2.58079e-05)
(1.01891 -1.5846e-06 0.000103697)
(1.01886 -1.84067e-06 0.000206533)
(1.01904 -5.06607e-07 -5.12243e-06)
(1.01904 -8.56935e-07 -6.86405e-06)
(1.01905 -1.25517e-06 -7.4287e-06)
(1.01905 -1.69357e-06 -1.69235e-06)
(1.01901 -2.1971e-06 2.58395e-05)
(1.01891 -2.75231e-06 0.000103737)
(1.01886 -3.22909e-06 0.000206578)
(0.369632 1.46714e-06 -2.66285e-06)
(0.36962 2.25566e-06 -1.15654e-06)
(0.369603 3.12737e-06 5.75354e-06)
(0.369575 4.11215e-06 2.93797e-05)
(0.369507 5.18294e-06 9.8833e-05)
(0.369425 6.2594e-06 0.000256276)
(0.369444 7.07023e-06 0.000438487)
(0.369632 8.72906e-07 -2.69936e-06)
(0.369621 1.33843e-06 -1.21882e-06)
(0.369604 1.84489e-06 5.65336e-06)
(0.369575 2.40531e-06 2.92381e-05)
(0.369507 3.00006e-06 9.86395e-05)
(0.369426 3.58415e-06 0.00025603)
(0.369444 4.02004e-06 0.000438208)
(0.369633 2.90067e-07 -2.71674e-06)
(0.369621 4.43919e-07 -1.24832e-06)
(0.369604 6.1001e-07 5.60667e-06)
(0.369576 7.91916e-07 2.91734e-05)
(0.369508 9.82711e-07 9.85533e-05)
(0.369426 1.16805e-06 0.000255924)
(0.369444 1.30575e-06 0.000438088)
(0.369633 -2.88357e-07 -2.71674e-06)
(0.369621 -4.42233e-07 -1.24831e-06)
(0.369604 -6.08315e-07 5.60666e-06)
(0.369576 -7.90184e-07 2.91734e-05)
(0.369508 -9.80879e-07 9.85533e-05)
(0.369426 -1.1659e-06 0.000255924)
(0.369444 -1.3032e-06 0.000438088)
(0.369632 -8.71203e-07 -2.69935e-06)
(0.369621 -1.33675e-06 -1.21882e-06)
(0.369604 -1.84318e-06 5.65335e-06)
(0.369575 -2.40354e-06 2.9238e-05)
(0.369507 -2.99818e-06 9.86394e-05)
(0.369426 -3.58195e-06 0.00025603)
(0.369444 -4.0175e-06 0.000438208)
(0.369632 -1.46543e-06 -2.66284e-06)
(0.36962 -2.25395e-06 -1.15653e-06)
(0.369603 -3.12561e-06 5.75352e-06)
(0.369575 -4.11031e-06 2.93796e-05)
(0.369507 -5.18095e-06 9.88328e-05)
(0.369425 -6.25712e-06 0.000256276)
(0.369444 -7.06768e-06 0.000438487)
(0.101463 1.74972e-06 1.43573e-05)
(0.101443 2.62628e-06 2.46987e-05)
(0.101415 3.59294e-06 4.29267e-05)
(0.101376 4.65512e-06 7.75298e-05)
(0.101318 5.77859e-06 0.000147194)
(0.101278 6.86837e-06 0.000277814)
(0.101326 7.65664e-06 0.000416629)
(0.101463 1.04355e-06 1.42616e-05)
(0.101443 1.56151e-06 2.45464e-05)
(0.101416 2.12377e-06 4.27064e-05)
(0.101377 2.73042e-06 7.72205e-05)
(0.101319 3.35929e-06 0.00014678)
(0.101279 3.95864e-06 0.000277295)
(0.101327 4.38964e-06 0.000416037)
(0.101464 3.46949e-07 1.42156e-05)
(0.101444 5.18193e-07 2.44738e-05)
(0.101416 7.02655e-07 4.26025e-05)
(0.101378 8.99884e-07 7.70768e-05)
(0.10132 1.10235e-06 0.000146592)
(0.101279 1.29374e-06 0.000277062)
(0.101327 1.43099e-06 0.000415775)
(0.101464 -3.45639e-07 1.42155e-05)
(0.101444 -5.16925e-07 2.44737e-05)
(0.101416 -7.0139e-07 4.26024e-05)
(0.101378 -8.98588e-07 7.70768e-05)
(0.10132 -1.10094e-06 0.000146592)
(0.101279 -1.29192e-06 0.000277062)
(0.101327 -1.42867e-06 0.000415774)
(0.101463 -1.04224e-06 1.42615e-05)
(0.101443 -1.56023e-06 2.45463e-05)
(0.101416 -2.12248e-06 4.27062e-05)
(0.101377 -2.72908e-06 7.72203e-05)
(0.101319 -3.35782e-06 0.00014678)
(0.101279 -3.95678e-06 0.000277295)
(0.101327 -4.38732e-06 0.000416037)
(0.101463 -1.74839e-06 1.43572e-05)
(0.101443 -2.62495e-06 2.46986e-05)
(0.101415 -3.59157e-06 4.29265e-05)
(0.101376 -4.65367e-06 7.75294e-05)
(0.101318 -5.777e-06 0.000147193)
(0.101278 -6.86643e-06 0.000277813)
(0.101326 -7.65432e-06 0.000416628)
(1.01883 1.03389e-05 -0.000176627)
(1.01888 9.46124e-06 -0.000134934)
(1.01896 8.10597e-06 -5.48154e-05)
(1.01902 6.70412e-06 -1.24669e-05)
(1.01903 5.41378e-06 -1.27045e-07)
(1.01903 4.27532e-06 2.74465e-06)
(1.01903 3.29622e-06 2.74858e-06)
(1.01883 1.48883e-05 -0.000177142)
(1.01888 1.34718e-05 -0.000135405)
(1.01896 1.12707e-05 -5.51809e-05)
(1.01902 9.08781e-06 -1.27248e-05)
(1.01903 7.18279e-06 -3.04623e-07)
(1.01903 5.56837e-06 2.62217e-06)
(1.01903 4.2232e-06 2.66471e-06)
(1.01883 2.12305e-05 -0.000178356)
(1.01888 1.89477e-05 -0.000136466)
(1.01896 1.52914e-05 -5.59323e-05)
(1.01901 1.18675e-05 -1.31977e-05)
(1.01903 9.09555e-06 -5.98196e-07)
(1.01903 6.87264e-06 2.43575e-06)
(1.01903 5.09736e-06 2.5453e-06)
(1.01882 3.06418e-05 -0.000181312)
(1.01887 2.67538e-05 -0.000138963)
(1.01895 2.04511e-05 -5.75444e-05)
(1.01901 1.50732e-05 -1.40946e-05)
(1.01902 1.11175e-05 -1.09271e-06)
(1.01902 8.12584e-06 2.15184e-06)
(1.01902 5.85101e-06 2.37849e-06)
(1.01881 5.02738e-05 -0.00018874)
(1.01886 4.1781e-05 -0.000144956)
(1.01894 2.84529e-05 -6.09964e-05)
(1.019 1.89715e-05 -1.5767e-05)
(1.01902 1.32527e-05 -1.91441e-06)
(1.01902 9.28003e-06 1.72583e-06)
(1.01902 6.41094e-06 2.15322e-06)
(1.0188 0.000102183 -0.000208846)
(1.01884 8.07658e-05 -0.000160363)
(1.01893 4.50677e-05 -6.85929e-05)
(1.01899 2.41494e-05 -1.87348e-05)
(1.01901 1.50698e-05 -3.16718e-06)
(1.01902 9.93277e-06 1.13301e-06)
(1.01902 6.47748e-06 1.8773e-06)
(1.01877 0.000112377 -0.000256547)
(1.0188 8.95685e-05 -0.000196052)
(1.01889 4.87913e-05 -8.35038e-05)
(1.01898 2.38719e-05 -2.31704e-05)