/*--------------------------------*- C++ -*----------------------------------*\
  =========                 |
  \\      /  F ield         | OpenFOAM: The Open Source CFD Toolbox
   \\    /   O peration     | Website:  https://openfoam.org
    \\  /    A nd           | Version:  7
     \\/     M anipulation  |
\*---------------------------------------------------------------------------*/
FoamFile
{
    version     2.0;
    format      ascii;
    class       volVectorField;
    location    "4";
    object      U;
}
// * * * * * * * * * * * * * * * * * * * * * * * * * * * * * * * * * * * * * //

dimensions      [0 1 -1 0 0 0 0];

internalField   nonuniform List<vector> 
7784
(
(1.15767 -3.18999e-05 -3.84363e-05)
(1.15771 -2.66418e-05 -2.94531e-05)
(1.15775 -1.92797e-05 -1.57525e-05)
(1.15777 -1.30694e-05 -4.77718e-06)
(1.15777 -8.78725e-06 7.26416e-07)
(1.15777 -5.94678e-06 2.39082e-06)
(1.15777 -4.04234e-06 2.26168e-06)
(1.15768 -2.1827e-05 -3.06066e-05)
(1.15772 -1.80423e-05 -2.36737e-05)
(1.15775 -1.3424e-05 -1.27014e-05)
(1.15777 -9.82692e-06 -3.54044e-06)
(1.15777 -7.25794e-06 1.13867e-06)
(1.15777 -5.33167e-06 2.49562e-06)
(1.15777 -3.86871e-06 2.24823e-06)
(1.15768 -1.14714e-05 -2.54247e-05)
(1.15772 -1.03512e-05 -1.96749e-05)
(1.15775 -8.77314e-06 -1.03959e-05)
(1.15777 -7.23511e-06 -2.50278e-06)
(1.15777 -5.82614e-06 1.52921e-06)
(1.15777 -4.55949e-06 2.6196e-06)
(1.15777 -3.48711e-06 2.25445e-06)
(1.15769 -7.45835e-06 -2.30798e-05)
(1.15773 -7.14897e-06 -1.77883e-05)
(1.15776 -6.49468e-06 -9.23109e-06)
(1.15777 -5.65319e-06 -1.93764e-06)
(1.15777 -4.74137e-06 1.75709e-06)
(1.15777 -3.83886e-06 2.68646e-06)
(1.15777 -3.04396e-06 2.25818e-06)
(1.15769 -5.72254e-06 -2.22284e-05)
(1.15773 -5.52623e-06 -1.70836e-05)
(1.15776 -5.08884e-06 -8.78039e-06)
(1.15777 -4.50255e-06 -1.7163e-06)
(1.15778 -3.84992e-06 1.84048e-06)
(1.15778 -3.18252e-06 2.68936e-06)
(1.15777 -2.58541e-06 2.24802e-06)
(1.15769 -4.49301e-06 -2.20001e-05)
(1.15773 -4.32208e-06 -1.689e-05)
(1.15776 -3.98264e-06 -8.65662e-06)
(1.15777 -3.54479e-06 -1.66121e-06)
(1.15778 -3.06235e-06 1.85305e-06)
(1.15778 -2.567e-06 2.67058e-06)
(1.15777 -2.11559e-06 2.23459e-06)
(1.15769 -3.43548e-06 -2.19793e-05)
(1.15773 -3.29243e-06 -1.68688e-05)
(1.15776 -3.02582e-06 -8.64472e-06)
(1.15777 -2.69494e-06 -1.66206e-06)
(1.15778 -2.33824e-06 1.84449e-06)
(1.15778 -1.97625e-06 2.65254e-06)
(1.15778 -1.64252e-06 2.22395e-06)
(0.587584 -6.58911e-05 -0.000109588)
(0.58764 -5.65566e-05 -8.9041e-05)
(0.587696 -4.25204e-05 -5.62603e-05)
(0.587738 -2.954e-05 -2.84149e-05)
(0.587765 -1.99845e-05 -1.22985e-05)
(0.587783 -1.34732e-05 -4.92548e-06)
(0.587794 -9.10275e-06 -2.19076e-06)
(0.5876 -5.40556e-05 -9.39146e-05)
(0.587654 -4.67357e-05 -7.78238e-05)
(0.587706 -3.61782e-05 -5.0386e-05)
(0.587744 -2.63791e-05 -2.58972e-05)
(0.587769 -1.88081e-05 -1.12867e-05)
(0.587785 -1.3278e-05 -4.52559e-06)
(0.587796 -9.33657e-06 -2.05872e-06)
(0.587616 -3.89884e-05 -8.19894e-05)
(0.587668 -3.50799e-05 -6.86647e-05)
(0.587717 -2.87534e-05 -4.49255e-05)
(0.587751 -2.22256e-05 -2.31482e-05)
(0.587774 -1.66523e-05 -9.98361e-06)
(0.587789 -1.22536e-05 -3.91111e-06)
(0.587799 -8.92273e-06 -1.78193e-06)
(0.587626 -2.88384e-05 -7.54188e-05)
(0.587677 -2.65892e-05 -6.32908e-05)
(0.587725 -2.2604e-05 -4.13847e-05)
(0.587758 -1.81743e-05 -2.11462e-05)
(0.587779 -1.41301e-05 -8.92081e-06)
(0.587792 -1.07609e-05 -3.35839e-06)
(0.587801 -8.06105e-06 -1.48952e-06)
(0.587633 -2.17598e-05 -7.2214e-05)
(0.587683 -2.02455e-05 -6.05578e-05)
(0.58773 -1.75596e-05 -3.9454e-05)
(0.587762 -1.44999e-05 -1.99576e-05)
(0.587782 -1.15986e-05 -8.23073e-06)
(0.587795 -9.08015e-06 -2.97184e-06)
(0.587804 -6.96227e-06 -1.25694e-06)
(0.587637 -1.62567e-05 -7.07613e-05)
(0.587687 -1.51967e-05 -5.92743e-05)
(0.587734 -1.33585e-05 -3.84867e-05)
(0.587765 -1.12464e-05 -1.93088e-05)
(0.587785 -9.18926e-06 -7.81598e-06)
(0.587797 -7.34273e-06 -2.71678e-06)
(0.587805 -5.73581e-06 -1.08632e-06)
(0.587639 -1.18067e-05 -7.01091e-05)
(0.587689 -1.10735e-05 -5.86722e-05)
(0.587736 -9.8221e-06 -3.79996e-05)
(0.587767 -8.37867e-06 -1.89521e-05)
(0.587787 -6.94764e-06 -7.56551e-06)
(0.587799 -5.63243e-06 -2.54792e-06)
(0.587807 -4.46139e-06 -9.64555e-07)
(0.243508 -6.39186e-05 -0.000162581)
(0.243545 -5.58084e-05 -0.000142712)
(0.243585 -4.32267e-05 -0.000105589)
(0.243622 -3.0996e-05 -6.8775e-05)
(0.243652 -2.15434e-05 -4.25097e-05)
(0.243675 -1.48318e-05 -2.64076e-05)
(0.243693 -1.01662e-05 -1.70905e-05)
(0.24352 -5.72949e-05 -0.00014868)
(0.243556 -5.03951e-05 -0.000132507)
(0.243594 -3.99343e-05 -9.95735e-05)
(0.243628 -2.96575e-05 -6.55715e-05)
(0.243656 -2.13951e-05 -4.08019e-05)
(0.243678 -1.52275e-05 -2.54822e-05)
(0.243695 -1.07471e-05 -1.65851e-05)
(0.243533 -4.65017e-05 -0.000135544)
(0.243568 -4.17725e-05 -0.000121983)
(0.243604 -3.42293e-05 -9.2572e-05)
(0.243635 -2.64323e-05 -6.13949e-05)
(0.243662 -1.97699e-05 -3.83979e-05)
(0.243683 -1.45196e-05 -2.41082e-05)
(0.243698 -1.05256e-05 -1.57897e-05)
(0.243543 -3.67055e-05 -0.000126529)
(0.243578 -3.34481e-05 -0.000114334)
(0.243612 -2.81165e-05 -8.70726e-05)
(0.243642 -2.23996e-05 -5.78504e-05)
(0.243667 -1.7278e-05 -3.6219e-05)
(0.243687 -1.3053e-05 -2.27839e-05)
(0.243702 -9.69253e-06 -1.49805e-05)
(0.24355 -2.84756e-05 -0.000121053)
(0.243585 -2.61629e-05 -0.000109545)
(0.243619 -2.23978e-05 -8.3448e-05)
(0.243648 -1.82851e-05 -5.53645e-05)
(0.243672 -1.44716e-05 -3.45887e-05)
(0.24369 -1.1201e-05 -2.17249e-05)
(0.243704 -8.49389e-06 -1.42983e-05)
(0.243555 -2.15513e-05 -0.000117925)
(0.243589 -1.99171e-05 -0.000106748)
(0.243623 -1.72881e-05 -8.12343e-05)
(0.243652 -1.43834e-05 -5.37536e-05)
(0.243675 -1.16168e-05 -3.34634e-05)
(0.243693 -9.16661e-06 -2.09486e-05)
(0.243707 -7.07215e-06 -1.3772e-05)
(0.243558 -1.5728e-05 -0.000116154)
(0.243592 -1.46005e-05 -0.000105131)
(0.243626 -1.28018e-05 -7.99017e-05)
(0.243655 -1.07985e-05 -5.27327e-05)
(0.243678 -8.85262e-06 -3.27114e-05)
(0.243695 -7.08723e-06 -2.04043e-05)
(0.243708 -5.54096e-06 -1.33863e-05)
(1.15777 -2.76879e-06 1.59256e-06)
(1.15777 -1.88868e-06 8.93808e-07)
(1.15777 -1.24717e-06 2.81809e-07)
(1.15777 -7.50231e-07 -2.6678e-07)
(1.15777 -3.37598e-07 -8.37389e-07)
(1.15778 4.22116e-08 -1.54721e-06)
(1.15777 -2.80548e-06 1.55202e-06)
(1.15777 -2.01565e-06 8.57674e-07)
(1.15777 -1.40596e-06 2.5945e-07)
(1.15777 -9.21231e-07 -2.7528e-07)
(1.15777 -5.24958e-07 -8.34214e-07)
(1.15778 -1.84876e-07 -1.52276e-06)
(1.15777 -2.63884e-06 1.52979e-06)
(1.15777 -1.96483e-06 8.39479e-07)
(1.15777 -1.41888e-06 2.49762e-07)
(1.15777 -9.74843e-07 -2.76514e-07)
(1.15777 -6.11284e-07 -8.27112e-07)
(1.15778 -3.10655e-07 -1.50714e-06)
(1.15777 -2.37121e-06 1.52149e-06)
(1.15777 -1.80954e-06 8.36205e-07)
(1.15777 -1.3397e-06 2.50597e-07)
(1.15777 -9.50846e-07 -2.72059e-07)
(1.15777 -6.30366e-07 -8.1849e-07)
(1.15778 -3.67885e-07 -1.49352e-06)
(1.15777 -2.055e-06 1.51432e-06)
(1.15777 -1.5969e-06 8.36343e-07)
(1.15777 -1.20478e-06 2.5405e-07)
(1.15777 -8.74964e-07 -2.66224e-07)
(1.15777 -5.99885e-07 -8.09779e-07)
(1.15778 -3.72183e-07 -1.48078e-06)
(1.15777 -1.70483e-06 1.50833e-06)
(1.15777 -1.34254e-06 8.37456e-07)
(1.15777 -1.02737e-06 2.57938e-07)
(1.15777 -7.58327e-07 -2.60576e-07)
(1.15777 -5.30811e-07 -8.01972e-07)
(1.15778 -3.39149e-07 -1.46974e-06)
(1.15777 -1.33594e-06 1.50431e-06)
(1.15777 -1.0624e-06 8.38852e-07)
(1.15777 -8.21221e-07 2.61565e-07)
(1.15777 -6.12987e-07 -2.55704e-07)
(1.15778 -4.34589e-07 -7.95551e-07)
(1.15778 -2.81686e-07 -1.46097e-06)
(0.587803 -6.14244e-06 -1.46143e-06)
(0.587809 -4.0741e-06 -1.46121e-06)
(0.587813 -2.54562e-06 -1.72632e-06)
(0.587816 -1.33037e-06 -2.16233e-06)
(0.587818 -2.65917e-07 -2.82738e-06)
(0.587819 8.07539e-07 -3.81493e-06)
(0.587804 -6.52368e-06 -1.4297e-06)
(0.587809 -4.47034e-06 -1.45831e-06)
(0.587813 -2.90545e-06 -1.72554e-06)
(0.587816 -1.64481e-06 -2.15492e-06)
(0.587818 -5.52293e-07 -2.81044e-06)
(0.587819 5.06482e-07 -3.78291e-06)
(0.587806 -6.41662e-06 -1.29862e-06)
(0.587811 -4.50641e-06 -1.38684e-06)
(0.587814 -3.00941e-06 -1.68137e-06)
(0.587817 -1.7844e-06 -2.12351e-06)
(0.587819 -7.21282e-07 -2.78489e-06)
(0.58782 2.75341e-07 -3.76474e-06)
(0.587808 -5.93643e-06 -1.1323e-06)
(0.587812 -4.2562e-06 -1.28305e-06)
(0.587816 -2.90415e-06 -1.61462e-06)
(0.587818 -1.77881e-06 -2.0797e-06)
(0.58782 -7.96524e-07 -2.75625e-06)
(0.587821 1.15692e-07 -3.75029e-06)
(0.58781 -5.23131e-06 -9.84311e-07)
(0.587814 -3.81771e-06 -1.18345e-06)
(0.587817 -2.65161e-06 -1.54775e-06)
(0.587819 -1.66409e-06 -2.03504e-06)
(0.58782 -7.9454e-07 -2.72722e-06)
(0.587821 1.24284e-08 -3.73489e-06)
(0.587811 -4.38061e-06 -8.66376e-07)
(0.587815 -3.2437e-06 -1.09941e-06)
(0.587818 -2.28516e-06 -1.48915e-06)
(0.58782 -1.4606e-06 -1.99488e-06)
(0.587821 -7.27738e-07 -2.70064e-06)
(0.587822 -4.59422e-08 -3.71963e-06)
(0.587812 -3.44983e-06 -7.77189e-07)
(0.587816 -2.58306e-06 -1.0333e-06)
(0.587819 -1.83982e-06 -1.44165e-06)
(0.58782 -1.1919e-06 -1.96159e-06)
(0.587822 -6.11131e-07 -2.67815e-06)
(0.587823 -6.91387e-08 -3.70603e-06)
(0.243706 -6.90298e-06 -1.16566e-05)
(0.243715 -4.54831e-06 -8.27528e-06)
(0.24372 -2.75362e-06 -5.99542e-06)
(0.243723 -1.27639e-06 -4.36604e-06)
(0.243724 7.17931e-08 -3.13965e-06)
(0.243722 1.47548e-06 -2.04835e-06)
(0.243707 -7.49228e-06 -1.13755e-05)
(0.243716 -5.06785e-06 -8.1131e-06)
(0.243721 -3.17907e-06 -5.90128e-06)
(0.243724 -1.61212e-06 -4.31303e-06)
(0.243724 -1.9659e-07 -3.11304e-06)
(0.243722 1.23396e-06 -2.06212e-06)
(0.24371 -7.50424e-06 -1.09079e-05)
(0.243718 -5.17902e-06 -7.83457e-06)
(0.243723 -3.3271e-06 -5.73711e-06)
(0.243725 -1.7728e-06 -4.22444e-06)
(0.243725 -3.70588e-07 -3.08323e-06)
(0.243723 1.01109e-06 -2.09686e-06)
(0.243712 -7.05086e-06 -1.04091e-05)
(0.24372 -4.95326e-06 -7.52658e-06)
(0.243724 -3.24426e-06 -5.55094e-06)
(0.243727 -1.79025e-06 -4.12292e-06)
(0.243727 -4.75575e-07 -3.04988e-06)
(0.243725 8.05263e-07 -2.13399e-06)
(0.243714 -6.29031e-06 -9.96855e-06)
(0.243721 -4.48919e-06 -7.2439e-06)
(0.243726 -2.9891e-06 -5.37452e-06)
(0.243728 -1.69466e-06 -4.02359e-06)
(0.243728 -5.19039e-07 -3.01373e-06)
(0.243726 6.19137e-07 -2.16108e-06)
(0.243716 -5.31623e-06 -9.61331e-06)
(0.243723 -3.84466e-06 -7.00747e-06)
(0.243727 -2.59488e-06 -5.22235e-06)
(0.243729 -1.50228e-06 -3.93499e-06)
(0.243729 -5.04833e-07 -2.97821e-06)
(0.243727 4.57553e-07 -2.1772e-06)
(0.243718 -4.21418e-06 -9.34323e-06)
(0.243724 -3.07978e-06 -6.82207e-06)
(0.243728 -2.10088e-06 -5.09993e-06)
(0.24373 -1.23562e-06 -3.86159e-06)
(0.24373 -4.41785e-07 -2.94625e-06)
(0.243728 3.22656e-07 -2.18511e-06)
(1.15778 4.40411e-07 -2.47032e-06)
(1.15778 9.00317e-07 -3.62265e-06)
(1.15779 1.50728e-06 -4.60777e-06)
(1.15779 2.50026e-06 -3.62275e-06)
(1.15779 4.86676e-06 4.1201e-06)
(1.15775 1.02326e-05 2.44704e-05)
(1.15772 1.64826e-05 5.5963e-05)
(1.15778 1.23905e-07 -2.43913e-06)
(1.15778 4.13128e-07 -3.58976e-06)
(1.15779 7.10787e-07 -4.60823e-06)
(1.15779 1.1169e-06 -3.81637e-06)
(1.15779 2.40054e-06 3.27088e-06)
(1.15776 6.12917e-06 2.21044e-05)
(1.15773 1.09681e-05 5.17481e-05)
(1.15778 -6.85871e-08 -2.41546e-06)
(1.15778 1.23659e-07 -3.56406e-06)
(1.15779 2.78234e-07 -4.60848e-06)
(1.15779 4.29582e-07 -3.96128e-06)
(1.15779 9.38666e-07 2.6014e-06)
(1.15776 2.44359e-06 2.04421e-05)
(1.15773 4.50659e-06 4.90343e-05)
(1.15778 -1.59479e-07 -2.39616e-06)
(1.15778 1.19787e-09 -3.54142e-06)
(1.15779 1.26425e-07 -4.5922e-06)
(1.15779 2.4363e-07 -4.01045e-06)
(1.15779 5.39456e-07 2.29316e-06)
(1.15776 1.29775e-06 1.96681e-05)
(1.15773 2.32018e-06 4.77946e-05)
(1.15778 -1.86911e-07 -2.37724e-06)
(1.15778 -3.66294e-08 -3.51684e-06)
(1.15779 9.23442e-08 -4.56344e-06)
(1.15779 2.27373e-07 -4.00155e-06)
(1.15779 4.75354e-07 2.20214e-06)
(1.15776 9.74773e-07 1.93984e-05)
(1.15773 1.59658e-06 4.73517e-05)
(1.15778 -1.77582e-07 -2.36137e-06)
(1.15778 -3.90489e-08 -3.49447e-06)
(1.15779 9.05786e-08 -4.53445e-06)
(1.15779 2.34283e-07 -3.97444e-06)
(1.15779 4.52312e-07 2.19783e-06)
(1.15776 8.09643e-07 1.93373e-05)
(1.15773 1.21621e-06 4.72396e-05)
(1.15778 -1.49128e-07 -2.34886e-06)
(1.15778 -2.95888e-08 -3.47685e-06)
(1.15779 8.80719e-08 -4.51139e-06)
(1.15779 2.21362e-07 -3.94841e-06)
(1.15779 4.04232e-07 2.21664e-06)
(1.15776 6.64863e-07 1.93423e-05)
(1.15773 9.38574e-07 4.72355e-05)
(0.587819 2.02188e-06 -5.07337e-06)
(0.587819 3.59235e-06 -6.06313e-06)
(0.587815 5.85247e-06 -4.64878e-06)
(0.587806 9.49587e-06 4.78794e-06)
(0.587781 1.61256e-05 3.27013e-05)
(0.587734 2.67944e-05 8.73189e-05)
(0.587704 3.64999e-05 0.000154922)
(0.58782 1.63127e-06 -5.05223e-06)
(0.587819 2.98376e-06 -6.09035e-06)
(0.587816 4.80321e-06 -4.85798e-06)
(0.587807 7.55688e-06 3.97254e-06)
(0.587784 1.24864e-05 3.01824e-05)
(0.587738 2.08575e-05 8.12229e-05)
(0.587706 2.88977e-05 0.00014486)
(0.58782 1.29236e-06 -5.05284e-06)
(0.58782 2.44603e-06 -6.15434e-06)
(0.587816 3.91561e-06 -5.13e-06)
(0.587808 5.97992e-06 3.10465e-06)
(0.587785 9.2256e-06 2.78527e-05)
(0.58774 1.42009e-05 7.63954e-05)
(0.587708 1.89021e-05 0.000137632)
(0.587821 1.02707e-06 -5.05901e-06)
(0.58782 2.02223e-06 -6.20859e-06)
(0.587817 3.23311e-06 -5.33055e-06)
(0.587809 4.82821e-06 2.53135e-06)
(0.587787 7.09806e-06 2.64404e-05)
(0.587742 1.02251e-05 7.36825e-05)
(0.58771 1.30636e-05 0.00013377)
(0.587822 8.10953e-07 -5.05927e-06)
(0.587821 1.66312e-06 -6.23928e-06)
(0.587818 2.65828e-06 -5.44279e-06)
(0.58781 3.9035e-06 2.22726e-06)
(0.587789 5.55097e-06 2.57296e-05)
(0.587744 7.63941e-06 7.23761e-05)
(0.587712 9.46447e-06 0.000131963)
(0.587823 6.2585e-07 -5.05625e-06)
(0.587822 1.33247e-06 -6.25428e-06)
(0.587819 2.13163e-06 -5.49916e-06)
(0.587811 3.09032e-06 2.08082e-06)
(0.58779 4.28355e-06 2.54034e-05)
(0.587746 5.69546e-06 7.18026e-05)
(0.587713 6.88739e-06 0.000131195)
(0.587823 4.6373e-07 -5.0515e-06)
(0.587823 1.0193e-06 -6.26136e-06)
(0.58782 1.63332e-06 -5.52761e-06)
(0.587812 2.34686e-06 2.01103e-06)
(0.587791 3.19467e-06 2.52566e-05)
(0.587747 4.14569e-06 7.15585e-05)
(0.587714 4.92409e-06 0.000130882)
(0.243717 3.11154e-06 -5.9255e-07)
(0.243708 5.24791e-06 2.60248e-06)
(0.243693 8.26778e-06 1.09424e-05)
(0.243671 1.28097e-05 3.11198e-05)
(0.243639 1.98594e-05 7.2111e-05)
(0.243601 2.90915e-05 0.000136383)
(0.243585 3.59632e-05 0.000202004)
(0.243717 2.83063e-06 -6.7107e-07)
(0.243708 4.81622e-06 2.39094e-06)
(0.243694 7.48727e-06 1.04226e-05)
(0.243673 1.13152e-05 2.98637e-05)
(0.243641 1.71143e-05 6.91087e-05)
(0.243604 2.49026e-05 0.000130008)
(0.243587 3.0979e-05 0.000192132)
(0.243718 2.50927e-06 -8.01178e-07)
(0.24371 4.29619e-06 2.07792e-06)
(0.243696 6.5852e-06 9.70955e-06)
(0.243675 9.6905e-06 2.82846e-05)
(0.243644 1.40187e-05 6.58399e-05)
(0.243607 1.94746e-05 0.000124082)
(0.243589 2.38123e-05 0.00018379)
(0.24372 2.16283e-06 -9.33351e-07)
(0.243711 3.72707e-06 1.78268e-06)
(0.243698 5.64436e-06 9.08245e-06)
(0.243677 8.11805e-06 2.7008e-05)
(0.243647 1.1335e-05 6.34185e-05)
(0.24361 1.51396e-05 0.000120056)
(0.243592 1.81343e-05 0.000178435)
(0.243721 1.80387e-06 -1.03969e-06)
(0.243713 3.1295e-06 1.55359e-06)
(0.243699 4.6961e-06 8.62837e-06)
(0.243679 6.6253e-06 2.61493e-05)
(0.24365 8.99776e-06 6.18938e-05)
(0.243613 1.16601e-05 0.000117656)
(0.243594 1.37183e-05 0.000175346)
(0.243722 1.44578e-06 -1.11698e-06)
(0.243714 2.5255e-06 1.39025e-06)
(0.243701 3.76388e-06 8.3243e-06)
(0.243681 5.22844e-06 2.56127e-05)
(0.243652 6.94529e-06 6.10008e-05)
(0.243615 8.78707e-06 0.000116323)
(0.243596 1.01833e-05 0.000173678)
(0.243723 1.10005e-06 -1.16994e-06)
(0.243715 1.93403e-06 1.2782e-06)
(0.243702 2.86843e-06 8.12584e-06)
(0.243682 3.93903e-06 2.5283e-05)
(0.243653 5.14774e-06 6.04842e-05)
(0.243616 6.39835e-06 0.00011559)
(0.243598 7.32886e-06 0.000172789)
(1.15769 -2.43846e-06 -2.20063e-05)
(1.15773 -2.32936e-06 -1.68879e-05)
(1.15776 -2.13381e-06 -8.6582e-06)
(1.15777 -1.89839e-06 -1.67363e-06)
(1.15778 -1.64986e-06 1.83432e-06)
(1.15778 -1.40091e-06 2.63976e-06)
(1.15778 -1.17045e-06 2.21689e-06)
(1.1577 -1.45774e-06 -2.20321e-05)
(1.15773 -1.38933e-06 -1.69068e-05)
(1.15776 -1.26979e-06 -8.67087e-06)
(1.15777 -1.12866e-06 -1.6827e-06)
(1.15778 -9.81686e-07 1.82759e-06)
(1.15778 -8.3573e-07 2.63227e-06)
(1.15778 -7.00376e-07 2.21285e-06)
(1.1577 -4.83849e-07 -2.20456e-05)
(1.15773 -4.60372e-07 -1.69166e-05)
(1.15776 -4.20131e-07 -8.67736e-06)
(1.15777 -3.73162e-07 -1.68712e-06)
(1.15778 -3.24582e-07 1.8245e-06)
(1.15778 -2.76549e-07 2.62893e-06)
(1.15778 -2.31992e-07 2.21105e-06)
(1.1577 4.8748e-07 -2.20456e-05)
(1.15773 4.6477e-07 -1.69167e-05)
(1.15776 4.2481e-07 -8.67738e-06)
(1.15777 3.7776e-07 -1.68714e-06)
(1.15778 3.28951e-07 1.82449e-06)
(1.15778 2.80622e-07 2.62892e-06)
(1.15778 2.35756e-07 2.21104e-06)
(1.1577 1.46144e-06 -2.20321e-05)
(1.15773 1.39383e-06 -1.69068e-05)
(1.15776 1.27459e-06 -8.67092e-06)
(1.15777 1.13338e-06 -1.68275e-06)
(1.15778 9.86148e-07 1.82755e-06)
(1.15778 8.39871e-07 2.63225e-06)
(1.15778 7.04186e-07 2.21282e-06)
(1.15769 2.44228e-06 -2.20063e-05)
(1.15773 2.33407e-06 -1.68879e-05)
(1.15776 2.13886e-06 -8.65829e-06)
(1.15777 1.90335e-06 -1.67371e-06)
(1.15778 1.65452e-06 1.83425e-06)
(1.15778 1.40519e-06 2.63971e-06)
(1.15778 1.17435e-06 2.21685e-06)
(0.587641 -8.03902e-06 -6.98018e-05)
(0.587691 -7.55508e-06 -5.83745e-05)
(0.587737 -6.7391e-06 -3.77423e-05)
(0.587769 -5.79745e-06 -1.87493e-05)
(0.587788 -4.85427e-06 -7.41247e-06)
(0.5878 -3.97433e-06 -2.43774e-06)
(0.587808 -3.17862e-06 -8.80998e-07)
(0.587642 -4.6774e-06 -6.96521e-05)
(0.587692 -4.40064e-06 -5.82238e-05)
(0.587738 -3.93827e-06 -3.76057e-05)
(0.58777 -3.40516e-06 -1.86362e-05)
(0.587789 -2.86815e-06 -7.32302e-06)
(0.587801 -2.3626e-06 -2.37064e-06)
(0.587808 -1.90103e-06 -8.28608e-07)
(0.587642 -1.53336e-06 -6.95892e-05)
(0.587692 -1.44291e-06 -5.81591e-05)
(0.587739 -1.29296e-06 -3.75454e-05)
(0.58777 -1.12034e-06 -1.85848e-05)
(0.587789 -9.46069e-07 -7.2814e-06)
(0.587801 -7.81339e-07 -2.33875e-06)
(0.587809 -6.30259e-07 -8.03343e-07)
(0.587642 1.5416e-06 -6.95893e-05)
(0.587692 1.45227e-06 -5.81591e-05)
(0.587739 1.30256e-06 -3.75455e-05)
(0.58777 1.12964e-06 -1.85849e-05)
(0.587789 9.54812e-07 -7.28147e-06)
(0.587801 7.89432e-07 -2.3388e-06)
(0.587809 6.37682e-07 -8.03391e-07)
(0.587642 4.68582e-06 -6.96522e-05)
(0.587692 4.41023e-06 -5.8224e-05)
(0.587738 3.94812e-06 -3.76059e-05)
(0.58777 3.41468e-06 -1.86364e-05)
(0.587789 2.87706e-06 -7.32322e-06)
(0.587801 2.37081e-06 -2.37081e-06)
(0.587808 1.90852e-06 -8.28754e-07)
(0.587641 8.04778e-06 -6.9802e-05)
(0.587691 7.56514e-06 -5.83748e-05)
(0.587737 6.74947e-06 -3.77427e-05)
(0.587769 5.80743e-06 -1.87497e-05)
(0.587788 4.86354e-06 -7.41281e-06)
(0.5878 3.98279e-06 -2.43803e-06)
(0.587808 3.18626e-06 -8.8125e-07)
(0.24356 -1.07154e-05 -0.000115142)
(0.243594 -9.97826e-06 -0.000104191)
(0.243628 -8.80932e-06 -7.91028e-05)
(0.243656 -7.50101e-06 -5.20969e-05)
(0.243679 -6.21327e-06 -3.22243e-05)
(0.243697 -5.02521e-06 -2.00388e-05)
(0.24371 -3.96635e-06 -1.31186e-05)
(0.243561 -6.23058e-06 -0.000114584)
(0.243595 -5.81308e-06 -0.000103666)
(0.243629 -5.15394e-06 -7.86478e-05)
(0.243658 -4.41423e-06 -5.17254e-05)
(0.24368 -3.68019e-06 -3.1932e-05)
(0.243698 -2.99573e-06 -1.9814e-05)
(0.243711 -2.37887e-06 -1.29503e-05)
(0.243561 -2.04172e-06 -0.000114334)
(0.243596 -1.90619e-06 -0.000103429)
(0.24363 -1.69314e-06 -7.84405e-05)
(0.243658 -1.4539e-06 -5.15536e-05)
(0.243681 -1.21562e-06 -3.17948e-05)
(0.243698 -9.92331e-07 -1.9707e-05)
(0.243711 -7.90011e-07 -1.28691e-05)
(0.243561 2.05171e-06 -0.000114334)
(0.243596 1.91717e-06 -0.00010343)
(0.24363 1.70419e-06 -7.84406e-05)
(0.243658 1.46449e-06 -5.15538e-05)
(0.243681 1.22551e-06 -3.17949e-05)
(0.243698 1.00143e-06 -1.97072e-05)
(0.243711 7.98324e-07 -1.28693e-05)
(0.243561 6.24078e-06 -0.000114584)
(0.243595 5.82431e-06 -0.000103666)
(0.243629 5.16525e-06 -7.86483e-05)
(0.243658 4.42504e-06 -5.17259e-05)
(0.24368 3.69024e-06 -3.19324e-05)
(0.243698 3.00495e-06 -1.98144e-05)
(0.243711 2.38724e-06 -1.29506e-05)
(0.24356 1.0726e-05 -0.000115143)
(0.243594 9.99004e-06 -0.000104191)
(0.243628 8.82118e-06 -7.91037e-05)
(0.243656 7.51229e-06 -5.20977e-05)
(0.243679 6.22368e-06 -3.2225e-05)
(0.243697 5.03466e-06 -2.00394e-05)
(0.24371 3.97486e-06 -1.31192e-05)
(1.15777 -9.57834e-07 1.50206e-06)
(1.15777 -7.66792e-07 8.40844e-07)
(1.15777 -5.96793e-07 2.64542e-07)
(1.15777 -4.48784e-07 -2.51934e-07)
(1.15778 -3.20594e-07 -7.90739e-07)
(1.15778 -2.09121e-07 -1.4546e-06)
(1.15777 -5.75216e-07 1.50084e-06)
(1.15777 -4.62051e-07 8.41822e-07)
(1.15777 -3.61294e-07 2.66455e-07)
(1.15777 -2.72893e-07 -2.49417e-07)
(1.15778 -1.95705e-07 -7.8757e-07)
(1.15778 -1.27899e-07 -1.4505e-06)
(1.15777 -1.90748e-07 1.5003e-06)
(1.15777 -1.53339e-07 8.42144e-07)
(1.15777 -1.2005e-07 2.67372e-07)
(1.15777 -9.07198e-08 -2.48169e-07)
(1.15778 -6.49986e-08 -7.86007e-07)
(1.15778 -4.22815e-08 -1.44851e-06)
(1.15777 1.94208e-07 1.5003e-06)
(1.15777 1.56516e-07 8.42136e-07)
(1.15777 1.22973e-07 2.67364e-07)
(1.15777 9.3425e-08 -2.48176e-07)
(1.15778 6.75267e-08 -7.86013e-07)
(1.15778 4.46724e-08 -1.44851e-06)
(1.15777 5.78704e-07 1.50082e-06)
(1.15777 4.65246e-07 8.41796e-07)
(1.15777 3.6422e-07 2.66431e-07)
(1.15777 2.75595e-07 -2.49438e-07)
(1.15778 1.98228e-07 -7.87588e-07)
(1.15778 1.30285e-07 -1.45051e-06)
(1.15777 9.61372e-07 1.50201e-06)
(1.15777 7.70003e-07 8.40791e-07)
(1.15777 5.9972e-07 2.64501e-07)
(1.15777 4.51476e-07 -2.51969e-07)
(1.15778 3.23103e-07 -7.90772e-07)
(1.15778 2.11494e-07 -1.45463e-06)
(0.587813 -2.47963e-06 -7.13542e-07)
(0.587817 -1.87153e-06 -9.84531e-07)
(0.587819 -1.34354e-06 -1.40609e-06)
(0.587821 -8.78553e-07 -1.93631e-06)
(0.587822 -4.58957e-07 -2.66086e-06)
(0.587823 -6.62181e-08 -3.69534e-06)
(0.587814 -1.49127e-06 -6.72784e-07)
(0.587817 -1.1315e-06 -9.53069e-07)
(0.58782 -8.16094e-07 -1.38267e-06)
(0.587821 -5.3659e-07 -1.91941e-06)
(0.587823 -2.83241e-07 -2.64922e-06)
(0.587824 -4.55957e-08 -3.6881e-06)
(0.587814 -4.95475e-07 -6.5293e-07)
(0.587817 -3.76607e-07 -9.37721e-07)
(0.58782 -2.7188e-07 -1.37109e-06)
(0.587822 -1.78784e-07 -1.91099e-06)
(0.587823 -9.41915e-08 -2.64339e-06)
(0.587824 -1.47323e-08 -3.68448e-06)
(0.587814 5.02259e-07 -6.52973e-07)
(0.587817 3.82813e-07 -9.37761e-07)
(0.58782 2.77587e-07 -1.37112e-06)
(0.587822 1.84078e-07 -1.91102e-06)
(0.587823 9.9164e-08 -2.64342e-06)
(0.587824 1.94732e-08 -3.68451e-06)
(0.587814 1.49809e-06 -6.72914e-07)
(0.587817 1.13771e-06 -9.53188e-07)
(0.58782 8.21794e-07 -1.38278e-06)
(0.587821 5.4187e-07 -1.91951e-06)
(0.587823 2.88196e-07 -2.64931e-06)
(0.587824 5.03216e-08 -3.68818e-06)
(0.587813 2.48652e-06 -7.13765e-07)
(0.587817 1.87776e-06 -9.84738e-07)
(0.587819 1.34922e-06 -1.40627e-06)
(0.587821 8.83797e-07 -1.93647e-06)
(0.587822 4.63877e-07 -2.66102e-06)
(0.587823 7.09182e-08 -3.69549e-06)
(0.243719 -3.04235e-06 -9.15051e-06)
(0.243725 -2.24055e-06 -6.68692e-06)
(0.243729 -1.54031e-06 -5.00874e-06)
(0.243731 -9.16118e-07 -3.80573e-06)
(0.24373 -3.41127e-07 -2.92068e-06)
(0.243728 2.12028e-07 -2.18834e-06)
(0.24372 -1.83465e-06 -9.02698e-06)
(0.243726 -1.35784e-06 -6.59874e-06)
(0.243729 -9.37996e-07 -4.94849e-06)
(0.243731 -5.61646e-07 -3.76828e-06)
(0.243731 -2.13974e-07 -2.90296e-06)
(0.243729 1.20326e-07 -2.18928e-06)
(0.24372 -6.10572e-07 -8.96677e-06)
(0.243726 -4.52611e-07 -6.55529e-06)
(0.24373 -3.12948e-07 -4.9186e-06)
(0.243731 -1.87388e-07 -3.74956e-06)
(0.243731 -7.1209e-08 -2.89395e-06)
(0.243729 4.05049e-08 -2.18946e-06)
(0.24372 6.18143e-07 -8.96686e-06)
(0.243726 4.59516e-07 -6.55537e-06)
(0.24373 3.19282e-07 -4.91868e-06)
(0.243731 1.93252e-07 -3.74964e-06)
(0.243731 7.67059e-08 -2.89402e-06)
(0.243729 -3.52692e-08 -2.18952e-06)
(0.24372 1.84225e-06 -9.02728e-06)
(0.243726 1.36474e-06 -6.599e-06)
(0.243729 9.44317e-07 -4.94873e-06)
(0.243731 5.67488e-07 -3.76851e-06)
(0.243731 2.1945e-07 -2.90317e-06)
(0.243729 -1.15102e-07 -2.18949e-06)
(0.243719 3.05e-06 -9.15102e-06)
(0.243725 2.24746e-06 -6.68737e-06)
(0.243729 1.5466e-06 -5.00915e-06)
(0.243731 9.21919e-07 -3.8061e-06)
(0.24373 3.46574e-07 -2.92103e-06)
(0.243728 -2.06825e-07 -2.18869e-06)
(1.15778 -1.10388e-07 -2.33998e-06)
(1.15778 -1.84607e-08 -3.46446e-06)
(1.15779 7.46343e-08 -4.49545e-06)
(1.15779 1.80769e-07 -3.92945e-06)
(1.15779 3.18666e-07 2.23531e-06)
(1.15776 4.9951e-07 1.936e-05)
(1.15773 6.7907e-07 4.72553e-05)
(1.15778 -6.69916e-08 -2.33447e-06)
(1.15778 -9.28326e-09 -3.45699e-06)
(1.15779 5.00726e-08 -4.48594e-06)
(1.15779 1.17728e-07 -3.91791e-06)
(1.15779 2.03007e-07 2.24776e-06)
(1.15776 3.0982e-07 1.93739e-05)
(1.15773 4.12418e-07 4.7273e-05)
(1.15778 -2.17264e-08 -2.33187e-06)
(1.15778 -2.09261e-09 -3.45357e-06)
(1.15779 1.82395e-08 -4.48158e-06)
(1.15779 4.13929e-08 -3.91259e-06)
(1.15779 7.01891e-08 2.25368e-06)
(1.15776 1.05524e-07 1.9381e-05)
(1.15773 1.38901e-07 4.72822e-05)
(1.15778 2.40142e-08 -2.33188e-06)
(1.15778 4.30815e-09 -3.45357e-06)
(1.15779 -1.60678e-08 -4.48159e-06)
(1.15779 -3.92358e-08 -3.9126e-06)
(1.15779 -6.80147e-08 2.25367e-06)
(1.15776 -1.03325e-07 1.93809e-05)
(1.15773 -1.36863e-07 4.72822e-05)
(1.15778 6.92768e-08 -2.33449e-06)
(1.15778 1.15013e-08 -3.45701e-06)
(1.15779 -4.78884e-08 -4.48596e-06)
(1.15779 -1.15547e-07 -3.91793e-06)
(1.15779 -2.00798e-07 2.24773e-06)
(1.15776 -3.0758e-07 1.93739e-05)
(1.15773 -4.10349e-07 4.72729e-05)
(1.15778 1.1267e-07 -2.34001e-06)
(1.15778 2.06876e-08 -3.46449e-06)
(1.15779 -7.24225e-08 -4.49548e-06)
(1.15779 -1.78537e-07 -3.92948e-06)
(1.15779 -3.16379e-07 2.23525e-06)
(1.15776 -4.97181e-07 1.93599e-05)
(1.15773 -6.76929e-07 4.72552e-05)
(0.587824 3.19322e-07 -5.04709e-06)
(0.587823 7.18889e-07 -6.26498e-06)
(0.58782 1.15403e-06 -5.54293e-06)
(0.587813 1.64844e-06 1.97599e-06)
(0.587792 2.21721e-06 2.51878e-05)
(0.587747 2.8321e-06 7.14518e-05)
(0.587715 3.32397e-06 0.000130754)
(0.587824 1.87427e-07 -5.04388e-06)
(0.587823 4.27898e-07 -6.26663e-06)
(0.587821 6.87761e-07 -5.55124e-06)
(0.587813 9.78688e-07 1.95781e-06)
(0.587792 1.30653e-06 2.51544e-05)
(0.587748 1.65296e-06 7.14036e-05)
(0.587716 1.92611e-06 0.0001307)
(0.587824 6.316e-08 -5.04226e-06)
(0.587824 1.43377e-07 -6.2673e-06)
(0.587821 2.29793e-07 -5.55507e-06)
(0.587813 3.25839e-07 1.94975e-06)
(0.587792 4.33009e-07 2.51403e-05)
(0.587748 5.45025e-07 7.13844e-05)
(0.587716 6.32628e-07 0.00013068)
(0.587824 -5.85752e-08 -5.04228e-06)
(0.587824 -1.38875e-07 -6.26733e-06)
(0.587821 -2.25307e-07 -5.5551e-06)
(0.587813 -3.21304e-07 1.94971e-06)
(0.587792 -4.28364e-07 2.51402e-05)
(0.587748 -5.40292e-07 7.13844e-05)
(0.587716 -6.28212e-07 0.00013068)
(0.587824 -1.82842e-07 -5.04396e-06)
(0.587823 -4.23375e-07 -6.26672e-06)
(0.587821 -6.83228e-07 -5.55135e-06)
(0.587813 -9.74078e-07 1.95767e-06)
(0.587792 -1.30178e-06 2.51542e-05)
(0.587748 -1.64812e-06 7.14035e-05)
(0.587716 -1.92161e-06 0.0001307)
(0.587824 -3.14736e-07 -5.04724e-06)
(0.587823 -7.14323e-07 -6.26515e-06)
(0.58782 -1.14939e-06 -5.54313e-06)
(0.587813 -1.64367e-06 1.97574e-06)
(0.587792 -2.21225e-06 2.51875e-05)
(0.587747 -2.82703e-06 7.14514e-05)
(0.587715 -3.31928e-06 0.000130753)
(0.243724 7.70922e-07 -1.20465e-06)
(0.243715 1.36283e-06 1.20411e-06)
(0.243703 2.01437e-06 7.99908e-06)
(0.243683 2.74386e-06 2.50819e-05)
(0.243654 3.54568e-06 6.01843e-05)
(0.243617 4.35396e-06 0.000115183)
(0.243599 4.94673e-06 0.00017231)
(0.243724 4.56788e-07 -1.22543e-06)
(0.243716 8.1034e-07 1.1594e-06)
(0.243703 1.1947e-06 7.92367e-06)
(0.243683 1.61864e-06 2.49658e-05)
(0.243654 2.07674e-06 6.0017e-05)
(0.243618 2.53093e-06 0.000114964)
(0.243599 2.86089e-06 0.000172057)
(0.243724 1.52757e-07 -1.2352e-06)
(0.243716 2.70303e-07 1.13832e-06)
(0.243703 3.973e-07 7.88833e-06)
(0.243684 5.36384e-07 2.49123e-05)
(0.243655 6.85443e-07 5.99415e-05)
(0.243618 8.32037e-07 0.000114867)
(0.243599 9.37909e-07 0.000171947)
(0.243724 -1.47692e-07 -1.23527e-06)
(0.243716 -2.65321e-07 1.13824e-06)
(0.243703 -3.92325e-07 7.88824e-06)
(0.243684 -5.31332e-07 2.49122e-05)
(0.243655 -6.80239e-07 5.99414e-05)
(0.243618 -8.2672e-07 0.000114867)
(0.243599 -9.32957e-07 0.000171947)
(0.243724 -4.51717e-07 -1.22564e-06)
(0.243716 -8.05329e-07 1.15916e-06)
(0.243703 -1.18967e-06 7.92338e-06)
(0.243683 -1.6135e-06 2.49655e-05)
(0.243654 -2.07142e-06 6.00166e-05)
(0.243618 -2.5255e-06 0.000114963)
(0.243599 -2.85585e-06 0.000172056)
(0.243724 -7.65841e-07 -1.20503e-06)
(0.243715 -1.35776e-06 1.20368e-06)
(0.243703 -2.00922e-06 7.99857e-06)
(0.243683 -2.73853e-06 2.50813e-05)
(0.243654 -3.54012e-06 6.01836e-05)
(0.243617 -4.34829e-06 0.000115182)
(0.243599 -4.94151e-06 0.000172309)
(1.15769 3.43949e-06 -2.19793e-05)
(1.15773 3.29747e-06 -1.68689e-05)
(1.15776 3.03131e-06 -8.64484e-06)
(1.15777 2.70031e-06 -1.66218e-06)
(1.15778 2.34323e-06 1.84437e-06)
(1.15778 1.98075e-06 2.65247e-06)
(1.15778 1.64656e-06 2.22388e-06)
(1.15769 4.49722e-06 -2.20001e-05)
(1.15773 4.32759e-06 -1.689e-05)
(1.15776 3.98877e-06 -8.65675e-06)
(1.15777 3.55078e-06 -1.66138e-06)
(1.15778 3.06781e-06 1.85289e-06)
(1.15778 2.57181e-06 2.67048e-06)
(1.15777 2.11981e-06 2.2345e-06)
(1.15769 5.72688e-06 -2.22284e-05)
(1.15773 5.53224e-06 -1.70836e-05)
(1.15776 5.09585e-06 -8.7805e-06)
(1.15777 4.50942e-06 -1.71649e-06)
(1.15778 3.85604e-06 1.84027e-06)
(1.15778 3.18776e-06 2.68922e-06)
(1.15777 2.58983e-06 2.2479e-06)
(1.15769 7.46256e-06 -2.30796e-05)
(1.15773 7.15526e-06 -1.77881e-05)
(1.15776 6.50259e-06 -9.23103e-06)
(1.15777 5.6611e-06 -1.93781e-06)
(1.15777 4.74824e-06 1.75683e-06)
(1.15777 3.84456e-06 2.68623e-06)
(1.15777 3.04855e-06 2.25802e-06)
(1.15768 1.14749e-05 -2.54241e-05)
(1.15772 1.0357e-05 -1.96741e-05)
(1.15775 8.78131e-06 -1.03953e-05)
(1.15777 7.24365e-06 -2.50282e-06)
(1.15777 5.83357e-06 1.52891e-06)
(1.15777 4.56538e-06 2.61923e-06)
(1.15777 3.49169e-06 2.25424e-06)
(1.15768 2.18298e-05 -3.06053e-05)
(1.15772 1.80469e-05 -2.3672e-05)
(1.15775 1.34311e-05 -1.27002e-05)
(1.15777 9.83483e-06 -3.54009e-06)
(1.15777 7.2649e-06 1.13847e-06)
(1.15777 5.33711e-06 2.49531e-06)
(1.15777 3.87284e-06 2.24805e-06)
(1.15767 3.19018e-05 -3.84349e-05)
(1.15771 2.66449e-05 -2.94511e-05)