/*--------------------------------*- C++ -*----------------------------------*\
  =========                 |
  \\      /  F ield         | OpenFOAM: The Open Source CFD Toolbox
   \\    /   O peration     | Website:  https://openfoam.org
    \\  /    A nd           | Version:  7
     \\/     M anipulation  |
\*---------------------------------------------------------------------------*/
FoamFile
{
    version     2.0;
    format      ascii;
    class       volScalarField;
    location    "3.5";
    object      p;
}
// * * * * * * * * * * * * * * * * * * * * * * * * * * * * * * * * * * * * * //

dimensions      [0 2 -2 0 0 0 0];

internalField   nonuniform List<scalar> 
7784
(
-6.61699e-11
-0.000161592
-0.000398988
-0.000601472
-0.000744427
-0.000846412
-0.000925292
-1.584e-05
-0.000191761
-0.00042646
-0.000616383
-0.00075052
-0.000848762
-0.000926159
-6.54351e-05
-0.000234967
-0.000454979
-0.000631692
-0.000758253
-0.000852564
-0.000927932
-9.88438e-05
-0.000262665
-0.000474123
-0.000643458
-0.00076528
-0.000857058
-0.000930123
-0.000119677
-0.00028056
-0.000487479
-0.000652478
-0.000771053
-0.000860573
-0.000932089
-0.000133377
-0.000292689
-0.000496933
-0.000659202
-0.000775572
-0.00086349
-0.000933795
-0.000142175
-0.000300623
-0.000503338
-0.000663965
-0.000778918
-0.000865752
-0.000935179
-0.000229126
-0.000378127
-0.000558374
-0.000698239
-0.000798555
-0.000876843
-0.000942479
-0.000243887
-0.000399291
-0.000574553
-0.000705855
-0.000800953
-0.000877218
-0.000941948
-0.000272586
-0.000423566
-0.000589727
-0.000713533
-0.000804691
-0.000879192
-0.000942687
-0.000292243
-0.000439293
-0.000600297
-0.000719957
-0.000808506
-0.000881056
-0.000943766
-0.000305111
-0.000450188
-0.000608387
-0.000725427
-0.000812028
-0.00088324
-0.000944952
-0.000314207
-0.000458245
-0.000614679
-0.000729905
-0.000815049
-0.000885162
-0.000946085
-0.000320399
-0.000463874
-0.000619246
-0.000733306
-0.000817451
-0.000886746
-0.000947063
-0.000438394
-0.000543861
-0.000666558
-0.000764881
-0.000841461
-0.000905697
-0.00096197
-0.000445382
-0.000552782
-0.000672218
-0.000766685
-0.000841073
-0.000904567
-0.00096061
-0.000458516
-0.000564057
-0.000679332
-0.000770242
-0.000842659
-0.000905152
-0.00096055
-0.000468844
-0.000572697
-0.000685391
-0.000774019
-0.000844912
-0.000906364
-0.000961088
-0.000476407
-0.000579371
-0.00069049
-0.000777517
-0.00084718
-0.000907745
-0.000961796
-0.000482131
-0.000584645
-0.00069472
-0.000780576
-0.000849269
-0.00090909
-0.000962552
-0.000486215
-0.000588521
-0.00069795
-0.000783018
-0.000851012
-0.000910255
-0.000963246
-0.000989131
-0.00104381
-0.00109385
-0.00114251
-0.00119266
-0.00124734
-0.000989065
-0.00104327
-0.0010931
-0.00114162
-0.00119157
-0.00124594
-0.000989642
-0.00104315
-0.00109257
-0.00114076
-0.00119032
-0.00124406
-0.000990545
-0.00104331
-0.00109222
-0.00113999
-0.00118908
-0.00124223
-0.000991484
-0.00104355
-0.00109197
-0.0011393
-0.00118793
-0.00124049
-0.000992356
-0.00104381
-0.0010918
-0.00113871
-0.00118691
-0.00123896
-0.0009931
-0.00104405
-0.00109167
-0.00113825
-0.00118609
-0.00123773
-0.000999478
-0.00105049
-0.00109825
-0.00114532
-0.00119415
-0.00124713
-0.000998572
-0.00104947
-0.00109724
-0.00114432
-0.001193
-0.0012459
-0.000998506
-0.00104897
-0.0010965
-0.00114336
-0.00119178
-0.00124421
-0.000998878
-0.00104883
-0.00109598
-0.00114252
-0.00119055
-0.00124246
-0.000999369
-0.00104883
-0.00109558
-0.00114176
-0.00118941
-0.00124082
-0.000999903
-0.00104891
-0.00109528
-0.00114112
-0.0011884
-0.00123938
-0.0010004
-0.00104905
-0.00109507
-0.0011406
-0.00118758
-0.0012382
-0.00101213
-0.00105807
-0.00110178
-0.00114515
-0.00119006
-0.00123824
-0.00101073
-0.00105676
-0.00110062
-0.00114411
-0.00118905
-0.0012372
-0.00101025
-0.00105606
-0.00109979
-0.00114315
-0.00118791
-0.00123576
-0.00101029
-0.00105573
-0.00109919
-0.0011423
-0.00118675
-0.00123425
-0.00101049
-0.00105555
-0.00109871
-0.00114155
-0.0011857
-0.00123283
-0.00101078
-0.00105549
-0.00109835
-0.00114091
-0.00118477
-0.00123156
-0.00101109
-0.00105549
-0.00109808
-0.0011404
-0.00118401
-0.00123051
-0.00131053
-0.00138777
-0.00148556
-0.00161306
-0.00177332
-0.00192898
-0.00189522
-0.00130849
-0.00138456
-0.00148026
-0.00160361
-0.00175884
-0.00191996
-0.00190053
-0.00130573
-0.00138029
-0.00147365
-0.00159295
-0.00174233
-0.00189714
-0.00187482
-0.00130294
-0.0013761
-0.00146754
-0.00158363
-0.00172964
-0.00188065
-0.00185631
-0.00130039
-0.00137244
-0.00146248
-0.00157656
-0.00172034
-0.00186929
-0.00184398
-0.00129821
-0.00136942
-0.00145847
-0.00157126
-0.00171361
-0.0018613
-0.00183541
-0.00129647
-0.00136707
-0.00145545
-0.00156742
-0.0017089
-0.00185586
-0.00182963
-0.00130784
-0.00138058
-0.00146675
-0.00157085
-0.00169593
-0.0018148
-0.00181034
-0.00130615
-0.00137798
-0.00146253
-0.00156307
-0.00168382
-0.00180614
-0.0018106
-0.00130369
-0.00137424
-0.00145718
-0.0015551
-0.00167112
-0.00178948
-0.00179354
-0.00130113
-0.00137026
-0.00145216
-0.00154852
-0.00166158
-0.00177764
-0.00178111
-0.00129879
-0.00136688
-0.00144784
-0.00154289
-0.00165431
-0.00176922
-0.00177253
-0.00129678
-0.00136409
-0.00144431
-0.00153841
-0.00164877
-0.00176295
-0.00176614
-0.00129516
-0.00136191
-0.00144159
-0.00153504
-0.00164475
-0.00175847
-0.00176158
-0.00129208
-0.00135342
-0.00142574
-0.00150715
-0.00159731
-0.00167574
-0.00167942
-0.00129077
-0.00135157
-0.00142285
-0.001502
-0.00158943
-0.00166902
-0.00167486
-0.00128883
-0.00134892
-0.00141889
-0.00149617
-0.00158077
-0.00165857
-0.00166506
-0.00128684
-0.00134647
-0.00141505
-0.00149098
-0.00157386
-0.00165062
-0.00165749
-0.00128496
-0.00134408
-0.00141163
-0.00148653
-0.00156833
-0.00164455
-0.00165174
-0.00128329
-0.00134195
-0.00140874
-0.00148289
-0.00156396
-0.0016398
-0.00164718
-0.00128191
-0.00134022
-0.00140646
-0.00148009
-0.00156069
-0.00163629
-0.00164379
-0.000147606
-0.000305616
-0.000507501
-0.000667177
-0.000781249
-0.000867367
-0.000936212
-0.000150737
-0.000308545
-0.000510004
-0.000669158
-0.00078272
-0.000868409
-0.000936894
-0.000152172
-0.000309902
-0.00051118
-0.000670102
-0.00078343
-0.00086892
-0.000937233
-0.000152172
-0.000309902
-0.00051118
-0.000670102
-0.000783431
-0.00086892
-0.000937233
-0.000150738
-0.000308546
-0.000510005
-0.000669158
-0.00078272
-0.000868409
-0.000936894
-0.000147607
-0.000305617
-0.000507502
-0.000667178
-0.00078125
-0.000867367
-0.000936212
-0.000324375
-0.000467579
-0.00062236
-0.000735713
-0.000819218
-0.000887957
-0.000947823
-0.000326727
-0.00046982
-0.000624292
-0.000737244
-0.000820369
-0.000888761
-0.000948338
-0.000327821
-0.000470876
-0.000625215
-0.000737986
-0.000820935
-0.000889161
-0.000948597
-0.000327821
-0.000470876
-0.000625216
-0.000737987
-0.000820935
-0.000889161
-0.000948597
-0.000326728
-0.000469821
-0.000624293
-0.000737245
-0.000820369
-0.000888761
-0.000948338
-0.000324376
-0.00046758
-0.000622361
-0.000735714
-0.000819219
-0.000887958
-0.000947823
-0.00048893
-0.000591169
-0.000700233
-0.000784804
-0.000852329
-0.000911162
-0.000963804
-0.000490575
-0.00059281
-0.000701682
-0.000785965
-0.000853204
-0.000911776
-0.000964189
-0.000491349
-0.000593594
-0.000702383
-0.000786535
-0.000853639
-0.000912085
-0.000964385
-0.000491349
-0.000593594
-0.000702384
-0.000786535
-0.000853639
-0.000912085
-0.000964386
-0.000490576
-0.000592811
-0.000701683
-0.000785966
-0.000853205
-0.000911777
-0.00096419
-0.000488931
-0.00059117
-0.000700234
-0.000784805
-0.00085233
-0.000911163
-0.000963805
-0.000993678
-0.00104426
-0.0010916
-0.0011379
-0.00118547
-0.0012368
-0.000994073
-0.00104444
-0.00109156
-0.00113767
-0.00118505
-0.00123618
-0.000994271
-0.00104453
-0.00109154
-0.00113756
-0.00118484
-0.00123588
-0.000994271
-0.00104453
-0.00109154
-0.00113756
-0.00118484
-0.00123588
-0.000994072
-0.00104444
-0.00109156
-0.00113767
-0.00118505
-0.00123618
-0.000993677
-0.00104426
-0.0010916
-0.0011379
-0.00118546
-0.00123679
-0.0010008
-0.00104916
-0.00109492
-0.00114022
-0.00118696
-0.00123731
-0.00100107
-0.00104922
-0.00109483
-0.00113997
-0.00118655
-0.00123671
-0.00100121
-0.00104925
-0.00109478
-0.00113984
-0.00118634
-0.00123642
-0.00100121
-0.00104925
-0.00109478
-0.00113984
-0.00118634
-0.00123642
-0.00100107
-0.00104922
-0.00109483
-0.00113997
-0.00118654
-0.00123671
-0.0010008
-0.00104916
-0.00109492
-0.00114022
-0.00118696
-0.0012373
-0.00101136
-0.00105551
-0.00109789
-0.00114001
-0.00118342
-0.00122971
-0.00101155
-0.00105554
-0.00109777
-0.00113976
-0.00118303
-0.00122917
-0.00101165
-0.00105555
-0.00109771
-0.00113963
-0.00118284
-0.0012289
-0.00101165
-0.00105555
-0.00109771
-0.00113963
-0.00118284
-0.0012289
-0.00101155
-0.00105554
-0.00109777
-0.00113975
-0.00118303
-0.00122917
-0.00101136
-0.00105551
-0.00109789
-0.00114001
-0.00118342
-0.00122971
-0.00129518
-0.00136536
-0.0014533
-0.00156476
-0.00170573
-0.0018523
-0.0018259
-0.00129434
-0.00136427
-0.00145192
-0.0015631
-0.00170379
-0.00185014
-0.00182367
-0.00129392
-0.00136373
-0.00145126
-0.0015623
-0.00170286
-0.00184913
-0.00182262
-0.00129392
-0.00136373
-0.00145125
-0.00156229
-0.00170286
-0.00184912
-0.00182262
-0.00129433
-0.00136426
-0.00145192
-0.00156309
-0.00170378
-0.00185014
-0.00182367
-0.00129518
-0.00136536
-0.00145329
-0.00156475
-0.00170572
-0.00185229
-0.00182589
-0.00129395
-0.00136033
-0.00143963
-0.00153267
-0.00164199
-0.00175545
-0.00175852
-0.00129316
-0.0013593
-0.00143837
-0.00153116
-0.00164026
-0.00175358
-0.00175665
-0.00129277
-0.0013588
-0.00143775
-0.00153043
-0.00163943
-0.00175268
-0.00175576
-0.00129277
-0.0013588
-0.00143775
-0.00153043
-0.00163942
-0.00175268
-0.00175575
-0.00129316
-0.0013593
-0.00143837
-0.00153116
-0.00164025
-0.00175357
-0.00175664
-0.00129395
-0.00136032
-0.00143962
-0.00153266
-0.00164198
-0.00175544
-0.00175851
-0.00128087
-0.0013389
-0.00140479
-0.00147808
-0.00155839
-0.00163385
-0.00164144
-0.00128016
-0.00133801
-0.00140369
-0.00147678
-0.00155692
-0.00163232
-0.00163997
-0.00127981
-0.00133757
-0.00140315
-0.00147614
-0.00155621
-0.00163158
-0.00163926
-0.00127981
-0.00133756
-0.00140314
-0.00147614
-0.00155621
-0.00163158
-0.00163925
-0.00128016
-0.00133801
-0.00140368
-0.00147677
-0.00155692
-0.00163231
-0.00163996
-0.00128086
-0.00133889
-0.00140478
-0.00147807
-0.00155838
-0.00163384
-0.00164143
-0.000142176
-0.000300624
-0.000503338
-0.000663965
-0.000778919
-0.000865752
-0.00093518
-0.000133377
-0.000292689
-0.000496933
-0.000659202
-0.000775573
-0.00086349
-0.000933795
-0.000119674
-0.000280558
-0.000487478
-0.000652478
-0.000771053
-0.000860574
-0.00093209
-9.88375e-05
-0.00026266
-0.000474121
-0.000643458
-0.00076528
-0.000857058
-0.000930124
-6.54241e-05
-0.000234959
-0.000454977
-0.000631692
-0.000758254
-0.000852566
-0.000927935
-1.58254e-05
-0.000191752
-0.000426459
-0.000616385
-0.000750524
-0.000848766
-0.000926164
1.20696e-08
-0.000161585
-0.00039899
-0.000601479
-0.000744434
-0.00084642
-0.000925299
-0.0003204
-0.000463875
-0.000619247
-0.000733307
-0.000817453
-0.000886748
-0.000947064
-0.000314206
-0.000458245
-0.000614679
-0.000729906
-0.00081505
-0.000885164
-0.000946087
-0.000305107
-0.000450186
-0.000608386
-0.000725428
-0.00081203
-0.000883242
-0.000944954
-0.000292235
-0.000439288
-0.000600295
-0.000719958
-0.000808509
-0.00088106
-0.000943769
-0.000272571
-0.000423556
-0.000589724
-0.000713534
-0.000804694
-0.000879197
-0.000942691
-0.000243865
-0.000399277
-0.00057455
-0.000705857
-0.000800958
-0.000877225
-0.000941954
-0.000229105
-0.000378114
-0.000558375
-0.000698247
-0.000798566
-0.000876854
-0.000942491
-0.000486216
-0.000588522
-0.000697952
-0.000783019
-0.000851013
-0.000910256
-0.000963248
-0.00048213
-0.000584645
-0.000694721
-0.000780577
-0.000849271
-0.000909092
-0.000962555
-0.000476404
-0.000579369
-0.00069049
-0.000777519
-0.000847182
-0.000907748
-0.000961799
-0.000468835
-0.000572693
-0.00068539
-0.000774021
-0.000844915
-0.000906368
-0.000961092
-0.0004585
-0.000564048
-0.00067933
-0.000770243
-0.000842663
-0.000905158
-0.000960556
-0.000445359
-0.00055277
-0.000672217
-0.000766689
-0.00084108
-0.000904576
-0.000960618
-0.000438372
-0.000543851
-0.000666562
-0.000764891
-0.000841473
-0.00090571
-0.000961983
-0.000993099
-0.00104405
-0.00109167
-0.00113824
-0.00118608
-0.00123772
-0.000992356
-0.00104381
-0.00109179
-0.00113871
-0.00118691
-0.00123896
-0.000991484
-0.00104355
-0.00109197
-0.00113929
-0.00118792
-0.00124048
-0.000990546
-0.00104331
-0.00109222
-0.00113998
-0.00118908
-0.00124222
-0.000989644
-0.00104315
-0.00109257
-0.00114076
-0.00119031
-0.00124406
-0.000989068
-0.00104327
-0.0010931
-0.00114162
-0.00119157
-0.00124593
-0.000989137
-0.00104382
-0.00109386
-0.00114251
-0.00119266
-0.00124734
-0.0010004
-0.00104905
-0.00109507
-0.0011406
-0.00118758
-0.00123819
-0.000999903
-0.00104891
-0.00109528
-0.00114111
-0.0011884
-0.00123937
-0.000999371
-0.00104883
-0.00109558
-0.00114176
-0.0011894
-0.00124081
-0.00099888
-0.00104883
-0.00109598
-0.00114251
-0.00119055
-0.00124245
-0.00099851
-0.00104898
-0.0010965
-0.00114336
-0.00119178
-0.0012442
-0.000998579
-0.00104947
-0.00109724
-0.00114432
-0.001193
-0.0012459
-0.000999489
-0.00105049
-0.00109825
-0.00114532
-0.00119415
-0.00124712
-0.00101109
-0.00105549
-0.00109808
-0.00114039
-0.001184
-0.00123051
-0.00101078
-0.00105549
-0.00109835
-0.00114091
-0.00118477
-0.00123156
-0.00101049
-0.00105555
-0.00109871
-0.00114155
-0.0011857
-0.00123282
-0.00101029
-0.00105573
-0.00109919
-0.0011423
-0.00118675
-0.00123425
-0.00101026
-0.00105606
-0.00109979
-0.00114315
-0.00118791
-0.00123576
-0.00101074
-0.00105677
-0.00110063
-0.00114411
-0.00118904
-0.0012372
-0.00101214
-0.00105808
-0.00110179
-0.00114515
-0.00119006
-0.00123823
-0.00129646
-0.00136706
-0.00145543
-0.0015674
-0.00170888
-0.00185585
-0.00182962
-0.0012982
-0.00136941
-0.00145846
-0.00157124
-0.00171359
-0.00186128
-0.00183538
-0.00130038
-0.00137242
-0.00146246
-0.00157653
-0.00172032
-0.00186927
-0.00184396
-0.00130293
-0.00137608
-0.00146752
-0.00158361
-0.00172961
-0.00188062
-0.00185627
-0.00130572
-0.00138027
-0.00147363
-0.00159292
-0.0017423
-0.0018971
-0.00187478
-0.00130847
-0.00138454
-0.00148023
-0.00160358
-0.0017588
-0.00191992
-0.00190048
-0.00131052
-0.00138775
-0.00148554
-0.00161303
-0.00177328
-0.00192893
-0.00189516
-0.00129515
-0.0013619
-0.00144158
-0.00153503
-0.00164474
-0.00175846
-0.00176156
-0.00129677
-0.00136408
-0.0014443
-0.00153839
-0.00164875
-0.00176293
-0.00176612
-0.00129878
-0.00136687
-0.00144782
-0.00154287
-0.00165429
-0.0017692
-0.00177251
-0.00130112
-0.00137025
-0.00145214
-0.0015485
-0.00166155
-0.00177761
-0.00178108
-0.00130368
-0.00137422
-0.00145716
-0.00155508
-0.0016711
-0.00178944
-0.0017935
-0.00130614
-0.00137797
-0.00146251
-0.00156304
-0.00168379
-0.0018061
-0.00181056
-0.00130784
-0.00138057
-0.00146673
-0.00157083
-0.0016959
-0.00181477
-0.00181029
-0.00128191
-0.00134021
-0.00140645
-0.00148008
-0.00156068
-0.00163628
-0.00164378
-0.00128328
-0.00134194
-0.00140873
-0.00148287
-0.00156394
-0.00163978
-0.00164716
-0.00128495
-0.00134407
-0.00141161
-0.00148651
-0.00156831
-0.00164452
-0.00165171
-0.00128683
-0.00134646
-0.00141504
-0.00149096
-0.00157384
-0.00165059
-0.00165746
-0.00128882
-0.0013489
-0.00141887
-0.00149615
-0.00158075
-0.00165853
-0.00166502
-0.00129076
-0.00135156
-0.00142283
-0.00150198
-0.0015894
-0.00166899
-0.00167481
-0.00129207
-0.00135341
-0.00142573
-0.00150713
-0.00159728
-0.0016757
-0.00167938
-0.000623527
-0.000681633
-0.000757932
-0.000827293
-0.000886117
-0.000937749
-0.000984233
-0.000623425
-0.000682512
-0.000758458
-0.000826591
-0.000884538
-0.000935944
-0.00098248
-0.000627719
-0.000686904
-0.000761518
-0.000827981
-0.000884848
-0.000935683
-0.000981891
-0.000632479
-0.000691426
-0.000764921
-0.000830094
-0.000886015
-0.000936204
-0.000981961
-0.000636408
-0.000695214
-0.000767956
-0.000832189
-0.000887334
-0.000936939
-0.000982247
-0.000639558
-0.000698359
-0.000770596
-0.000834131
-0.000888651
-0.00093775
-0.00098265
-0.000641916
-0.000700779
-0.000772704
-0.000835755
-0.00088981
-0.000938507
-0.000983067
-0.000777022
-0.000800927
-0.000843881
-0.000889741
-0.000931911
-0.000970921
-0.00100741
-0.000774033
-0.000798332
-0.000842132
-0.000887794
-0.000929669
-0.000968749
-0.00100547
-0.000774195
-0.00079922
-0.000842809
-0.000887726
-0.000929077
-0.000967918
-0.00100454
-0.000775725
-0.000801104
-0.000844322
-0.000888573
-0.000929402
-0.000967884
-0.00100425
-0.000777234
-0.000802854
-0.000845833
-0.000889598
-0.000929982
-0.000968113
-0.00100421
-0.000778574
-0.000804433
-0.000847263
-0.000890662
-0.000930677
-0.000968491
-0.00100433
-0.000779656
-0.000805732
-0.000848477
-0.000891616
-0.000931348
-0.000968902
-0.00100451
-0.000901965
-0.000903529
-0.000922632
-0.000949318
-0.000976635
-0.00100389
-0.00103074
-0.000898544
-0.000899706
-0.00091982
-0.00094672
-0.0009741
-0.00100161
-0.00102879
-0.000896883
-0.000898723
-0.000919032
-0.000945707
-0.000972952
-0.00100046
-0.00102768
-0.000896577
-0.000898925
-0.000919245
-0.000945664
-0.000972687
-0.00100004
-0.00102716
-0.000896587
-0.000899314
-0.000919699
-0.000945934
-0.000972734
-0.000999906
-0.00102689
-0.000896752
-0.000899812
-0.00092027
-0.00094636
-0.000972962
-0.000999957
-0.00102679
-0.000896969
-0.000900305
-0.000920823
-0.000946805
-0.000973254
-0.0010001
-0.00102679
-0.00100345
-0.000990021
-0.000992174
-0.00100398
-0.0010189
-0.00103572
-0.00105362
-0.00100044
-0.000986013
-0.000989059
-0.00100124
-0.00101639
-0.00103355
-0.00105179
-0.0009981
-0.000984156
-0.00098755
-0.000999759
-0.00101498
-0.00103227
-0.00105063
-0.000996856
-0.000983407
-0.000986984
-0.000999172
-0.00101435
-0.00103162
-0.00104997
-0.000996023
-0.00098298
-0.000986755
-0.000998947
-0.00101405
-0.00103124
-0.00104955
-0.000995479
-0.000982784
-0.000986751
-0.000998936
-0.00101395
-0.00103106
-0.0010493
-0.000995148
-0.000982737
-0.000986843
-0.000999018
-0.00101397
-0.001031
-0.00104917
-0.00108609
-0.00106209
-0.00105225
-0.00105283
-0.00105768
-0.00106551
-0.00107534
-0.00108368
-0.00105834
-0.0010493
-0.0010503
-0.0010554
-0.00106355
-0.00107369
-0.00108126
-0.00105625
-0.00104758
-0.00104872
-0.00105395
-0.00106227
-0.00107257
-0.00107964
-0.00105507
-0.00104664
-0.00104786
-0.00105314
-0.00106151
-0.00107186
-0.00107842
-0.00105422
-0.00104604
-0.00104733
-0.00105262
-0.00106099
-0.00107135
-0.00107753
-0.00105365
-0.00104568
-0.00104702
-0.00105231
-0.00106066
-0.001071
-0.0010769
-0.00105329
-0.00104547
-0.00104686
-0.00105214
-0.00106046
-0.00107078
-0.00115181
-0.0011217
-0.00110345
-0.0010956
-0.00109238
-0.00109262
-0.00109537
-0.00115028
-0.00111846
-0.00110091
-0.00109343
-0.0010904
-0.00109091
-0.00109394
-0.00114813
-0.00111647
-0.00109926
-0.00109194
-0.00108905
-0.00108972
-0.0010929
-0.0011465
-0.00111519
-0.00109821
-0.00109099
-0.00108819
-0.00108894
-0.0010922
-0.00114523
-0.00111421
-0.00109744
-0.00109032
-0.00108756
-0.00108836
-0.00109166
-0.00114425
-0.00111349
-0.00109689
-0.00108985
-0.00108713
-0.00108795
-0.00109126
-0.00114351
-0.00111298
-0.00109652
-0.00108954
-0.00108685
-0.00108768
-0.00109099
-0.00102665
-0.00106628
-0.00110447
-0.00114248
-0.00118151
-0.00122297
-0.00102505
-0.0010649
-0.00110331
-0.00114151
-0.0011807
-0.00122221
-0.00102428
-0.00106405
-0.00110244
-0.00114062
-0.00117973
-0.00122107
-0.00102403
-0.00106358
-0.0011018
-0.00113982
-0.00117875
-0.00121984
-0.00102398
-0.00106327
-0.00110129
-0.00113911
-0.00117783
-0.00121865
-0.00102406
-0.00106309
-0.00110089
-0.00113851
-0.001177
-0.00121758
-0.00102419
-0.001063
-0.00110059
-0.00113802
-0.00117632
-0.00121668
-0.0010417
-0.0010744
-0.00110626
-0.00113802
-0.00117038
-0.00120403
-0.00104002
-0.00107301
-0.00110514
-0.00113714
-0.00116971
-0.0012035
-0.00103907
-0.0010721
-0.00110428
-0.00113633
-0.0011689
-0.00120264
-0.00103862
-0.00107154
-0.00110364
-0.00113561
-0.00116808
-0.00120166
-0.00103838
-0.00107114
-0.00110312
-0.00113496
-0.00116729
-0.0012007
-0.00103828
-0.00107087
-0.0011027
-0.00113441
-0.00116659
-0.00119981
-0.00103828
-0.0010707
-0.00110239
-0.00113396
-0.00116599
-0.00119906
-0.00105689
-0.00108241
-0.00110756
-0.00113265
-0.00115793
-0.00118361
-0.00105525
-0.00108108
-0.00110652
-0.00113186
-0.00115738
-0.00118324
-0.00105423
-0.00108016
-0.00110571
-0.00113114
-0.00115672
-0.0011826
-0.00105365
-0.00107955
-0.00110508
-0.0011305
-0.00115603
-0.00118185
-0.00105327
-0.0010791
-0.00110456
-0.00112992
-0.00115537
-0.00118108
-0.00105305
-0.00107877
-0.00110415
-0.00112942
-0.00115477
-0.00118037
-0.00105293
-0.00107855
-0.00110384
-0.00112903
-0.00115427
-0.00117975
-0.00107191
-0.0010903
-0.00110869
-0.00112704
-0.00114528
-0.00116329
-0.0010704
-0.00108909
-0.00110775
-0.00112635
-0.00114483
-0.00116303
-0.00106937
-0.0010882
-0.001107
-0.00112572
-0.00114429
-0.00116255
-0.00106873
-0.00108758
-0.00110641
-0.00112514
-0.00114372
-0.00116197
-0.00106827
-0.0010871
-0.00110591
-0.00112462
-0.00114317
-0.00116137
-0.00106796
-0.00108674
-0.0011055
-0.00112416
-0.00114266
-0.0011608
-0.00106776
-0.00108648
-0.00110519
-0.00112378
-0.00114223
-0.0011603
-0.00108631
-0.00109789
-0.00110974
-0.00112159
-0.00113313
-0.00114401
-0.00108496
-0.00109681
-0.00110892
-0.001121
-0.00113276
-0.00114382
-0.00108398
-0.00109599
-0.00110824
-0.00112044
-0.00113231
-0.00114346
-0.00108333
-0.00109539
-0.00110769
-0.00111994
-0.00113184
-0.00114301
-0.00108283
-0.00109491
-0.00110722
-0.00111948
-0.00113137
-0.00114253
-0.00108247
-0.00109453
-0.00110684
-0.00111907
-0.00113095
-0.00114208
-0.00108222
-0.00109426
-0.00110653
-0.00111874
-0.00113059
-0.00114168
-0.00109972
-0.00110501
-0.00111075
-0.00111652
-0.00112187
-0.00112629
-0.00109854
-0.00110407
-0.00111004
-0.00111601
-0.00112154
-0.00112614
-0.00109766
-0.00110333
-0.00110943
-0.00111552
-0.00112117
-0.00112586
-0.00109702
-0.00110277
-0.00110893
-0.00111508
-0.00112078
-0.00112551
-0.00109652
-0.0011023
-0.0011085
-0.00111468
-0.00112039
-0.00112513
-0.00109614
-0.00110193
-0.00110814
-0.00111432
-0.00112003
-0.00112477
-0.00109586
-0.00110165
-0.00110786
-0.00111403
-0.00111973
-0.00112444
-0.00126802
-0.00131764
-0.00137214
-0.00142994
-0.00148844
-0.00153111
-0.00152869
-0.00126715
-0.0013165
-0.00137042
-0.00142701
-0.00148447
-0.00152828
-0.00152532
-0.00126572
-0.00131459
-0.00136777
-0.00142326
-0.00147935
-0.00152287
-0.00152083
-0.00126413
-0.00131254
-0.00136499
-0.00141962
-0.00147477
-0.001518
-0.00151666
-0.00126261
-0.00131059
-0.00136241
-0.00141637
-0.00147089
-0.00151394
-0.00151304
-0.00126124
-0.00130885
-0.00136018
-0.00141362
-0.0014677
-0.00151062
-0.00151002
-0.0012601
-0.00130741
-0.00135838
-0.00141145
-0.00146523
-0.00150806
-0.00150766
-0.00123948
-0.00127682
-0.00131522
-0.00135295
-0.00138731
-0.00140547
-0.00139394
-0.00123898
-0.00127626
-0.00131444
-0.00135164
-0.00138585
-0.00140532
-0.00139259
-0.00123797
-0.00127501
-0.00131282
-0.00134944
-0.00138304
-0.00140277
-0.00139083
-0.00123678
-0.0012735
-0.0013109
-0.00134703
-0.00138016
-0.0013999
-0.00138865
-0.00123559
-0.00127202
-0.00130905
-0.00134479
-0.00137758
-0.00139734
-0.00138652
-0.00123449
-0.00127067
-0.00130739
-0.00134282
-0.00137536
-0.00139513
-0.00138463
-0.00123356
-0.00126952
-0.00130601
-0.00134121
-0.00137358
-0.00139336
-0.00138308
-0.0012097
-0.00123575
-0.00126054
-0.0012823
-0.00129876
-0.00130038
-0.0012806
-0.00120945
-0.00123557
-0.00126036
-0.00128192
-0.0012985
-0.0013012
-0.00127993
-0.00120877
-0.0012348
-0.00125943
-0.00128072
-0.00129705
-0.00130009
-0.00127933
-0.00120789
-0.00123375
-0.00125816
-0.0012792
-0.00129528
-0.00129846
-0.00127827
-0.00120699
-0.00123267
-0.00125687
-0.00127768
-0.00129359
-0.00129687
-0.0012771
-0.00120614
-0.00123165
-0.00125567
-0.0012763
-0.00129209
-0.00129543
-0.00127597
-0.0012054
-0.00123077
-0.00125464
-0.00127514
-0.00129084
-0.00129424
-0.00127498
-0.00118073
-0.00119689
-0.00121045
-0.00121971
-0.00122295
-0.00121284
-0.0011856
-0.00118063
-0.00119692
-0.00121058
-0.00121981
-0.00122318
-0.00121384
-0.001185
-0.00118018
-0.00119647
-0.00121008
-0.00121921
-0.0012225
-0.00121348
-0.00118492
-0.00117954
-0.00119576
-0.00120927
-0.00121826
-0.00122144
-0.00121261
-0.0011845
-0.00117887
-0.00119499
-0.00120839
-0.00121726
-0.00122034
-0.00121167
-0.00118392
-0.00117822
-0.00119424
-0.00120754
-0.00121632
-0.00121933
-0.00121075
-0.00118328
-0.00117764
-0.00119358
-0.0012068
-0.0012155
-0.00121848
-0.00120996
-0.00118268
-0.0011537
-0.00116139
-0.00116581
-0.00116555
-0.00115913
-0.00114008
-0.00110588
-0.00115368
-0.00116152
-0.00116606
-0.00116581
-0.00115959
-0.00114121
-0.00110527
-0.00115338
-0.00116126
-0.00116582
-0.00116554
-0.00115933
-0.00114123
-0.00110538
-0.00115292
-0.00116078
-0.00116531
-0.00116498
-0.00115873
-0.00114078
-0.00110526
-0.00115242
-0.00116024
-0.00116471
-0.00116434
-0.00115805
-0.00114023
-0.00110498
-0.00115193
-0.00115969
-0.00116412
-0.0011637
-0.0011574
-0.00113967
-0.00110462
-0.00115148
-0.0011592
-0.00116358
-0.00116313
-0.00115683
-0.00113916
-0.00110426
-0.00112919
-0.00112973
-0.00112675
-0.00111912
-0.00110562
-0.00108021
-0.00104242
-0.00112919
-0.00112987
-0.001127
-0.00111938
-0.0011061
-0.00108124
-0.00104134
-0.00112899
-0.00112972
-0.00112689
-0.00111927
-0.00110601
-0.00108137
-0.00104139
-0.00112865
-0.00112939
-0.00112657
-0.00111894
-0.00110568
-0.00108115
-0.00104136
-0.00112827
-0.00112901
-0.00112617
-0.00111852
-0.00110527
-0.00108084
-0.0010412
-0.0011279
-0.00112861
-0.00112575
-0.00111809
-0.00110485
-0.00108049
-0.00104099
-0.00112755
-0.00112824
-0.00112536
-0.00111769
-0.00110447
-0.00108017
-0.00104078
-0.00064354
-0.000702492
-0.000774242
-0.00083698
-0.000890716
-0.000939121
-0.000983424
-0.000644547
-0.000703577
-0.000775239
-0.000837793
-0.00089133
-0.000939547
-0.00098368
-0.000645028
-0.000704102
-0.000775728
-0.000838196
-0.000891639
-0.000939763
-0.000983812
-0.000645028
-0.000704103
-0.000775728
-0.000838197
-0.00089164
-0.000939764
-0.000983813
-0.000644548
-0.000703578
-0.00077524
-0.000837793
-0.000891331
-0.000939547
-0.000983681
-0.000643542
-0.000702493
-0.000774244
-0.000836981
-0.000890717
-0.000939122
-0.000983425
-0.000780438
-0.000806691
-0.000849399
-0.000892366
-0.0009319
-0.00096926
-0.00100469
-0.000780937
-0.000807316
-0.000850011
-0.000892876
-0.000932285
-0.000969519
-0.00100484
-0.000781178
-0.000807624
-0.000850316
-0.000893133
-0.000932482
-0.000969654
-0.00100491
-0.000781179
-0.000807624
-0.000850317
-0.000893134
-0.000932482
-0.000969655
-0.00100491
-0.000780938
-0.000807318
-0.000850013
-0.000892877
-0.000932286
-0.00096952
-0.00100484
-0.00078044
-0.000806693
-0.000849401
-0.000892368
-0.000931901
-0.000969262
-0.0010047
-0.000897157
-0.000900705
-0.000921272
-0.000947182
-0.000973522
-0.00100025
-0.00102683
-0.000897287
-0.000900981
-0.000921584
-0.000947449
-0.00097372
-0.00100037
-0.00102688
-0.000897353
-0.00090112
-0.000921743
-0.000947587
-0.000973824
-0.00100044
-0.00102691
-0.000897354
-0.000901121
-0.000921744
-0.000947587
-0.000973825
-0.00100044
-0.00102691
-0.000897289
-0.000900982
-0.000921585
-0.00094745
-0.000973721
-0.00100037
-0.00102688
-0.00089716
-0.000900708
-0.000921274
-0.000947184
-0.000973524
-0.00100025
-0.00102684
-0.000994947
-0.000982752
-0.000986953
-0.000999119
-0.00101402
-0.001031
-0.0010491
-0.000994831
-0.000982781
-0.000987044
-0.000999204
-0.00101407
-0.00103101
-0.00104908
-0.000994777
-0.000982801
-0.000987095
-0.000999251
-0.00101411
-0.00103103
-0.00104907
-0.000994778
-0.000982802
-0.000987095
-0.000999252
-0.00101411
-0.00103103
-0.00104907
-0.000994833
-0.000982783
-0.000987046
-0.000999206
-0.00101408
-0.00103101
-0.00104908
-0.000994951
-0.000982755
-0.000986956
-0.000999122
-0.00101402
-0.001031
-0.00104911
-0.00107647
-0.00105307
-0.00104536
-0.00104677
-0.00105204
-0.00106035
-0.00107065
-0.0010762
-0.00105294
-0.0010453
-0.00104673
-0.001052
-0.0010603
-0.00107057
-0.00107607
-0.00105288
-0.00104527
-0.00104671
-0.00105198
-0.00106027
-0.00107053
-0.00107608
-0.00105288
-0.00104528
-0.00104672
-0.00105198
-0.00106027
-0.00107053
-0.00107621
-0.00105294
-0.0010453
-0.00104673
-0.001052
-0.0010603
-0.00107057
-0.00107647
-0.00105307
-0.00104536
-0.00104678
-0.00105205
-0.00106036
-0.00107065
-0.00114299
-0.00111263
-0.00109628
-0.00108934
-0.00108667
-0.0010875
-0.00109081
-0.00114266
-0.00111242
-0.00109613
-0.00108922
-0.00108656
-0.00108739
-0.0010907
-0.0011425
-0.00111231
-0.00109606
-0.00108916
-0.00108651
-0.00108734
-0.00109065
-0.0011425
-0.00111231
-0.00109606
-0.00108916
-0.00108651
-0.00108734
-0.00109065
-0.00114266
-0.00111242
-0.00109613
-0.00108922
-0.00108656
-0.00108739
-0.0010907
-0.001143
-0.00111264
-0.00109628
-0.00108934
-0.00108667
-0.0010875
-0.00109081
-0.00125921
-0.00130632
-0.00135702
-0.00140986
-0.00146344
-0.00150622
-0.00150597
-0.00125861
-0.00130558
-0.00135613
-0.00140881
-0.00146229
-0.00150504
-0.00150488
-0.00125831
-0.0013052
-0.00135568
-0.0014083
-0.00146172
-0.00150446
-0.00150435
-0.00125831
-0.0013052
-0.00135568
-0.0014083
-0.00146172
-0.00150446
-0.00150435
-0.00125861
-0.00130557
-0.00135612
-0.00140881
-0.00146228
-0.00150504
-0.00150488
-0.00125921
-0.00130631
-0.00135702
-0.00140985
-0.00146344
-0.00150621
-0.00150596
-0.00123283
-0.00126864
-0.00130496
-0.00134
-0.00137226
-0.00139204
-0.00138192
-0.00123234
-0.00126804
-0.00130425
-0.00133919
-0.00137139
-0.00139118
-0.00138116
-0.00123209
-0.00126774
-0.00130389
-0.00133879
-0.00137096
-0.00139075
-0.00138078
-0.00123209
-0.00126774
-0.00130389
-0.00133879
-0.00137096
-0.00139075
-0.00138077
-0.00123234
-0.00126804
-0.00130425
-0.00133919
-0.00137139
-0.00139117
-0.00138115
-0.00123283
-0.00126864
-0.00130495
-0.00133999
-0.00137226
-0.00139203
-0.00138191
-0.00120482
-0.00123008
-0.00125384
-0.00127425
-0.0012899
-0.00129333
-0.00127422
-0.00120442
-0.00122961
-0.0012533
-0.00127365
-0.00128927
-0.00129272
-0.0012737
-0.00120421
-0.00122937
-0.00125303
-0.00127335
-0.00128895
-0.00129241
-0.00127343
-0.00120421
-0.00122937
-0.00125303
-0.00127335
-0.00128895
-0.00129241
-0.00127343