/*--------------------------------*- C++ -*----------------------------------*\
  =========                 |
  \\      /  F ield         | OpenFOAM: The Open Source CFD Toolbox
   \\    /   O peration     | Website:  https://openfoam.org
    \\  /    A nd           | Version:  7
     \\/     M anipulation  |
\*---------------------------------------------------------------------------*/
FoamFile
{
    version     2.0;
    format      ascii;
    class       volScalarField;
    location    "2.75";
    object      p;
}
// * * * * * * * * * * * * * * * * * * * * * * * * * * * * * * * * * * * * * //

dimensions      [0 2 -2 0 0 0 0];

internalField   nonuniform List<scalar> 
7784
(
1.75318e-10
-0.000244511
-0.00066165
-0.00104954
-0.00131687
-0.00150397
-0.00165222
3.55451e-05
-0.00025451
-0.00069495
-0.00106783
-0.00132125
-0.00150381
-0.0016512
-3.65478e-05
-0.000320334
-0.000738027
-0.00108847
-0.00132966
-0.00150719
-0.0016525
-8.11242e-05
-0.000358292
-0.000764263
-0.00110365
-0.00133779
-0.00151137
-0.00165499
-0.000106194
-0.000380544
-0.000781264
-0.00111491
-0.00134461
-0.0015155
-0.00165763
-0.000122086
-0.000395198
-0.000792993
-0.00112317
-0.00135003
-0.0015193
-0.00166008
-0.000132002
-0.000404515
-0.000800728
-0.00112892
-0.00135404
-0.0015223
-0.00166199
-0.000442769
-0.000668817
-0.000977856
-0.00123518
-0.00141853
-0.00156291
-0.00168831
-0.00044929
-0.000685252
-0.000994097
-0.00124078
-0.00141709
-0.0015601
-0.00168572
-0.000489405
-0.000720035
-0.0010149
-0.00124934
-0.00141982
-0.00156079
-0.00168525
-0.000513634
-0.000740239
-0.00102839
-0.00125683
-0.00142378
-0.00156282
-0.00168557
-0.000527323
-0.000752593
-0.00103786
-0.00126304
-0.0014275
-0.00156473
-0.00168608
-0.000536528
-0.000761396
-0.00104502
-0.00126806
-0.0014307
-0.00156631
-0.00168669
-0.000542547
-0.000767323
-0.00105005
-0.00127179
-0.00143325
-0.00156767
-0.00168738
-0.000862932
-0.000998407
-0.00118864
-0.00135792
-0.00149468
-0.00161357
-0.00172171
-0.000862989
-0.000999656
-0.00118875
-0.00135483
-0.00148982
-0.00160905
-0.001718
-0.000875159
-0.00101103
-0.00119549
-0.00135687
-0.0014895
-0.00160793
-0.00171652
-0.000884558
-0.00101973
-0.00120165
-0.00136022
-0.00149101
-0.00160834
-0.00171618
-0.000890763
-0.00102592
-0.00120663
-0.00136344
-0.0014928
-0.0016091
-0.0017162
-0.000895361
-0.00103078
-0.00121076
-0.00136634
-0.00149459
-0.00160997
-0.00171644
-0.000898543
-0.00103427
-0.00121387
-0.00136867
-0.00149613
-0.00161082
-0.00171679
-0.00177774
-0.00188846
-0.00199112
-0.00209141
-0.00219428
-0.00230469
-0.00177642
-0.00188707
-0.00198983
-0.00209023
-0.00219309
-0.00230345
-0.00177638
-0.00188642
-0.00198888
-0.00208906
-0.0021916
-0.00230139
-0.00177718
-0.0018863
-0.00198822
-0.00208796
-0.00219
-0.00229906
-0.00177837
-0.00188642
-0.00198772
-0.00208695
-0.00218846
-0.00229681
-0.00177959
-0.00188665
-0.00198734
-0.00208609
-0.00218708
-0.00229482
-0.00178064
-0.00188688
-0.00198708
-0.00208539
-0.00218594
-0.00229318
-0.00179964
-0.00190136
-0.00199821
-0.00209412
-0.00219288
-0.00229882
-0.00179727
-0.00189934
-0.00199661
-0.00209289
-0.00219192
-0.0022979
-0.00179633
-0.00189816
-0.0019954
-0.00209164
-0.00219051
-0.0022961
-0.00179612
-0.00189755
-0.00199449
-0.00209046
-0.00218897
-0.002294
-0.00179607
-0.00189718
-0.00199376
-0.00208938
-0.00218748
-0.00229195
-0.00179617
-0.00189698
-0.00199318
-0.00208844
-0.00218613
-0.00229012
-0.00179636
-0.0018969
-0.00199275
-0.00208768
-0.00218502
-0.0022886
-0.00182085
-0.00191364
-0.00200312
-0.00209211
-0.00218338
-0.00227989
-0.00181785
-0.0019113
-0.00200139
-0.00209088
-0.00218255
-0.00227928
-0.00181631
-0.00190985
-0.00200006
-0.00208963
-0.00218128
-0.00227779
-0.00181562
-0.00190896
-0.00199904
-0.00208846
-0.00217987
-0.00227595
-0.00181524
-0.00190833
-0.00199819
-0.00208738
-0.00217848
-0.00227411
-0.00181508
-0.00190791
-0.00199752
-0.00208644
-0.00217722
-0.00227241
-0.00181506
-0.00190763
-0.001997
-0.00208567
-0.00217616
-0.00227097
-0.00242961
-0.00257824
-0.00276314
-0.00300399
-0.00331306
-0.00362175
-0.00360961
-0.00242783
-0.00257526
-0.00275742
-0.00299139
-0.00329353
-0.00361866
-0.00363475
-0.00242467
-0.00257012
-0.00274884
-0.0029763
-0.00326694
-0.00357957
-0.0035907
-0.00242118
-0.00256476
-0.00274056
-0.00296341
-0.00324743
-0.00355371
-0.00356216
-0.0024179
-0.00256
-0.00273363
-0.0029534
-0.00323373
-0.00353703
-0.00354455
-0.00241507
-0.00255603
-0.00272812
-0.00294586
-0.00322397
-0.00352554
-0.00353256
-0.00241278
-0.00255291
-0.00272395
-0.00294041
-0.00321721
-0.00351784
-0.00352461
-0.002417
-0.00255355
-0.00271378
-0.00290436
-0.00314203
-0.00337073
-0.00338868
-0.00241576
-0.00255159
-0.00270999
-0.00289515
-0.00312646
-0.00336414
-0.00339559
-0.0024131
-0.00254744
-0.00270337
-0.00288382
-0.00310691
-0.00333728
-0.00336819
-0.00241004
-0.00254289
-0.00269665
-0.00287397
-0.00309271
-0.00331959
-0.00335013
-0.00240712
-0.00253875
-0.00269084
-0.00286608
-0.00308244
-0.00330789
-0.00333868
-0.00240455
-0.00253523
-0.00268611
-0.00285994
-0.00307477
-0.00329933
-0.00333033
-0.00240245
-0.00253243
-0.00268248
-0.00285537
-0.00306928
-0.00329332
-0.00332446
-0.00238524
-0.00250245
-0.00263263
-0.00277708
-0.00293959
-0.00307789
-0.00308712
-0.00238457
-0.00250151
-0.00263079
-0.00277223
-0.00293142
-0.00307286
-0.00308267
-0.00238256
-0.00249856
-0.00262638
-0.00276509
-0.00291992
-0.00305878
-0.00306985
-0.00238006
-0.00249503
-0.00262142
-0.0027582
-0.00291058
-0.00304817
-0.00306018
-0.0023776
-0.00249168
-0.00261692
-0.00275233
-0.00290329
-0.00304034
-0.00305313
-0.00237538
-0.00248874
-0.00261312
-0.00274755
-0.00289755
-0.00303426
-0.00304759
-0.00237353
-0.00248635
-0.00261011
-0.00274387
-0.00289329
-0.00302981
-0.0030435
-0.000137909
-0.000410186
-0.000805616
-0.00113273
-0.00135683
-0.00152445
-0.00166328
-0.000141209
-0.000413424
-0.000808488
-0.00113504
-0.00135857
-0.00152584
-0.00166417
-0.000142689
-0.000414896
-0.000809816
-0.00113612
-0.00135941
-0.00152652
-0.00166463
-0.000142687
-0.000414894
-0.000809815
-0.00113612
-0.00135941
-0.00152652
-0.00166463
-0.000141204
-0.000413419
-0.000808483
-0.00113503
-0.00135857
-0.00152584
-0.00166417
-0.0001379
-0.000410178
-0.000805609
-0.00113272
-0.00135682
-0.00152444
-0.00166328
-0.00054623
-0.000771071
-0.00105336
-0.00127438
-0.0014351
-0.00156872
-0.00168806
-0.000548326
-0.000773268
-0.00105537
-0.001276
-0.00143629
-0.00156941
-0.00168849
-0.000549276
-0.000774282
-0.00105632
-0.00127677
-0.00143687
-0.00156975
-0.00168869
-0.000549274
-0.00077428
-0.00105631
-0.00127677
-0.00143687
-0.00156975
-0.00168869
-0.000548322
-0.000773263
-0.00105537
-0.001276
-0.00143629
-0.00156941
-0.00168849
-0.000546223
-0.000771064
-0.00105336
-0.00127438
-0.0014351
-0.00156871
-0.00168806
-0.00090056
-0.00103658
-0.00121602
-0.00137035
-0.00149731
-0.00161151
-0.00171714
-0.000901729
-0.00103796
-0.00121735
-0.00137143
-0.00149809
-0.00161199
-0.00171739
-0.000902263
-0.00103861
-0.00121798
-0.00137196
-0.00149847
-0.00161223
-0.00171752
-0.000902262
-0.00103861
-0.00121798
-0.00137196
-0.00149847
-0.00161223
-0.00171752
-0.000901725
-0.00103796
-0.00121735
-0.00137143
-0.00149808
-0.00161199
-0.00171739
-0.000900553
-0.00103657
-0.00121601
-0.00137035
-0.0014973
-0.00161151
-0.00171714
-0.00178144
-0.00188708
-0.00198689
-0.00208486
-0.00218508
-0.00229193
-0.001782
-0.00188722
-0.00198676
-0.00208451
-0.0021845
-0.00229111
-0.00178228
-0.00188729
-0.00198671
-0.00208433
-0.0021842
-0.00229069
-0.00178228
-0.00188729
-0.00198671
-0.00208433
-0.0021842
-0.00229069
-0.00178199
-0.00188722
-0.00198676
-0.00208451
-0.00218449
-0.0022911
-0.00178144
-0.00188708
-0.00198688
-0.00208486
-0.00218507
-0.00229193
-0.00179655
-0.00189687
-0.00199244
-0.0020871
-0.00218417
-0.00228745
-0.00179669
-0.00189687
-0.00199224
-0.00208672
-0.0021836
-0.00228668
-0.00179675
-0.00189687
-0.00199215
-0.00208653
-0.00218331
-0.0022863
-0.00179675
-0.00189687
-0.00199215
-0.00208653
-0.00218331
-0.0022863
-0.00179668
-0.00189687
-0.00199224
-0.00208672
-0.0021836
-0.00228668
-0.00179655
-0.00189687
-0.00199244
-0.0020871
-0.00218417
-0.00228745
-0.00181511
-0.00190747
-0.00199662
-0.00208509
-0.00217534
-0.00226986
-0.00181516
-0.00190737
-0.00199638
-0.0020847
-0.00217479
-0.00226909
-0.00181519
-0.00190732
-0.00199626
-0.0020845
-0.00217451
-0.00226871
-0.00181519
-0.00190732
-0.00199626
-0.0020845
-0.00217451
-0.00226871
-0.00181516
-0.00190737
-0.00199638
-0.0020847
-0.00217479
-0.00226909
-0.00181511
-0.00190746
-0.00199662
-0.00208509
-0.00217534
-0.00226985
-0.00241106
-0.00255063
-0.00272098
-0.00293667
-0.00321274
-0.00351287
-0.00351956
-0.00240993
-0.00254915
-0.00271909
-0.00293434
-0.00321002
-0.0035099
-0.00351658
-0.00240937
-0.00254842
-0.00271816
-0.00293322
-0.00320873
-0.00350851
-0.00351519
-0.00240937
-0.00254842
-0.00271816
-0.00293322
-0.00320873
-0.00350851
-0.00351519
-0.00240993
-0.00254915
-0.00271908
-0.00293434
-0.00321002
-0.0035099
-0.00351657
-0.00241106
-0.00255063
-0.00272098
-0.00293667
-0.00321274
-0.00351286
-0.00351955
-0.00240087
-0.00253035
-0.00267986
-0.00285218
-0.00306556
-0.00328933
-0.00332059
-0.00239981
-0.002529
-0.00267817
-0.00285016
-0.00306325
-0.00328689
-0.00331825
-0.00239929
-0.00252833
-0.00267735
-0.00284918
-0.00306214
-0.00328573
-0.00331714
-0.00239929
-0.00252833
-0.00267735
-0.00284918
-0.00306214
-0.00328573
-0.00331714
-0.00239981
-0.002529
-0.00267817
-0.00285015
-0.00306324
-0.00328688
-0.00331824
-0.00240086
-0.00253035
-0.00267986
-0.00285217
-0.00306555
-0.00328932
-0.00332058
-0.00237211
-0.00248455
-0.0026079
-0.00274125
-0.00289031
-0.00302674
-0.0030407
-0.00237116
-0.00248336
-0.00260645
-0.00273956
-0.00288843
-0.00302482
-0.00303895
-0.00237068
-0.00248277
-0.00260574
-0.00273873
-0.00288752
-0.0030239
-0.00303811
-0.00237068
-0.00248277
-0.00260574
-0.00273873
-0.00288752
-0.0030239
-0.00303811
-0.00237115
-0.00248336
-0.00260645
-0.00273956
-0.00288843
-0.00302482
-0.00303895
-0.00237211
-0.00248455
-0.00260789
-0.00274124
-0.00289031
-0.00302673
-0.00304069
-0.000131989
-0.000404503
-0.000800718
-0.00112892
-0.00135404
-0.00152229
-0.00166199
-0.00012207
-0.000395183
-0.000792979
-0.00112316
-0.00135002
-0.00151929
-0.00166007
-0.000106174
-0.000380525
-0.000781248
-0.00111489
-0.00134459
-0.00151549
-0.00165762
-8.10996e-05
-0.00035827
-0.000764245
-0.00110364
-0.00133777
-0.00151136
-0.00165498
-3.652e-05
-0.000320309
-0.000738008
-0.00108845
-0.00132965
-0.00150718
-0.00165249
3.55771e-05
-0.000254482
-0.000694932
-0.00106781
-0.00132124
-0.0015038
-0.0016512
2.90759e-08
-0.000244485
-0.000661635
-0.00104953
-0.00131686
-0.00150396
-0.00165221
-0.000542536
-0.000767313
-0.00105004
-0.00127179
-0.00143324
-0.00156766
-0.00168738
-0.000536514
-0.000761383
-0.001045
-0.00126805
-0.0014307
-0.00156631
-0.00168669
-0.000527304
-0.000752576
-0.00103785
-0.00126303
-0.00142749
-0.00156472
-0.00168608
-0.000513609
-0.000740218
-0.00102838
-0.00125682
-0.00142377
-0.00156282
-0.00168556
-0.000489372
-0.000720009
-0.00101488
-0.00124932
-0.00141981
-0.00156079
-0.00168525
-0.000449252
-0.000685222
-0.00099408
-0.00124077
-0.00141708
-0.00156009
-0.00168572
-0.000442731
-0.000668788
-0.000977843
-0.00123517
-0.00141853
-0.00156291
-0.00168831
-0.000898535
-0.00103426
-0.00121386
-0.00136866
-0.00149612
-0.00161081
-0.00171679
-0.000895349
-0.00103077
-0.00121075
-0.00136634
-0.00149458
-0.00160997
-0.00171644
-0.000890747
-0.00102591
-0.00120662
-0.00136343
-0.00149279
-0.00160909
-0.0017162
-0.000884537
-0.00101971
-0.00120164
-0.00136021
-0.001491
-0.00160834
-0.00171618
-0.000875129
-0.00101101
-0.00119548
-0.00135686
-0.00148949
-0.00160792
-0.00171652
-0.000862954
-0.000999633
-0.00118873
-0.00135482
-0.00148981
-0.00160905
-0.001718
-0.0008629
-0.000998386
-0.00118864
-0.00135792
-0.00149468
-0.00161357
-0.00172171
-0.00178064
-0.00188688
-0.00198707
-0.00208538
-0.00218594
-0.00229317
-0.00177958
-0.00188664
-0.00198734
-0.00208608
-0.00218708
-0.00229482
-0.00177836
-0.00188642
-0.00198771
-0.00208695
-0.00218845
-0.00229681
-0.00177717
-0.0018863
-0.00198821
-0.00208796
-0.00219
-0.00229906
-0.00177637
-0.00188642
-0.00198888
-0.00208905
-0.0021916
-0.00230139
-0.00177642
-0.00188706
-0.00198982
-0.00209023
-0.00219309
-0.00230344
-0.00177774
-0.00188846
-0.00199112
-0.00209141
-0.00219428
-0.00230469
-0.00179636
-0.00189689
-0.00199275
-0.00208767
-0.00218502
-0.0022886
-0.00179617
-0.00189698
-0.00199318
-0.00208843
-0.00218613
-0.00229011
-0.00179606
-0.00189718
-0.00199375
-0.00208937
-0.00218748
-0.00229195
-0.00179611
-0.00189755
-0.00199449
-0.00209046
-0.00218897
-0.002294
-0.00179632
-0.00189816
-0.0019954
-0.00209164
-0.00219051
-0.0022961
-0.00179727
-0.00189933
-0.00199661
-0.00209289
-0.00219192
-0.0022979
-0.00179964
-0.00190136
-0.00199821
-0.00209412
-0.00219288
-0.00229882
-0.00181506
-0.00190763
-0.00199699
-0.00208567
-0.00217616
-0.00227097
-0.00181508
-0.0019079
-0.00199751
-0.00208644
-0.00217722
-0.00227241
-0.00181523
-0.00190833
-0.00199819
-0.00208738
-0.00217847
-0.0022741
-0.00181561
-0.00190896
-0.00199904
-0.00208846
-0.00217986
-0.00227595
-0.00181631
-0.00190984
-0.00200006
-0.00208963
-0.00218128
-0.00227779
-0.00181785
-0.0019113
-0.00200139
-0.00209088
-0.00218255
-0.00227928
-0.00182086
-0.00191364
-0.00200312
-0.00209211
-0.00218338
-0.00227989
-0.00241277
-0.0025529
-0.00272394
-0.0029404
-0.0032172
-0.00351782
-0.0035246
-0.00241506
-0.00255602
-0.00272812
-0.00294585
-0.00322395
-0.00352553
-0.00353254
-0.0024179
-0.00255999
-0.00273362
-0.00295338
-0.00323371
-0.00353701
-0.00354453
-0.00242117
-0.00256475
-0.00274054
-0.0029634
-0.00324741
-0.00355368
-0.00356213
-0.00242466
-0.00257011
-0.00274882
-0.00297628
-0.00326691
-0.00357954
-0.00359066
-0.00242782
-0.00257525
-0.0027574
-0.00299137
-0.0032935
-0.00361862
-0.0036347
-0.0024296
-0.00257823
-0.00276313
-0.00300397
-0.00331303
-0.0036217
-0.00360956
-0.00240244
-0.00253242
-0.00268247
-0.00285537
-0.00306927
-0.00329331
-0.00332445
-0.00240455
-0.00253522
-0.00268611
-0.00285993
-0.00307476
-0.00329932
-0.00333031
-0.00240711
-0.00253874
-0.00269083
-0.00286607
-0.00308242
-0.00330787
-0.00333866
-0.00241003
-0.00254288
-0.00269664
-0.00287395
-0.00309269
-0.00331957
-0.0033501
-0.0024131
-0.00254743
-0.00270335
-0.0028838
-0.00310688
-0.00333724
-0.00336815
-0.00241575
-0.00255158
-0.00270997
-0.00289513
-0.00312643
-0.0033641
-0.00339555
-0.00241699
-0.00255354
-0.00271376
-0.00290434
-0.003142
-0.00337069
-0.00338864
-0.00237352
-0.00248634
-0.0026101
-0.00274387
-0.00289328
-0.0030298
-0.0030435
-0.00237537
-0.00248874
-0.00261311
-0.00274754
-0.00289754
-0.00303425
-0.00304758
-0.00237759
-0.00249167
-0.00261691
-0.00275232
-0.00290327
-0.00304032
-0.00305311
-0.00238005
-0.00249502
-0.00262141
-0.00275819
-0.00291057
-0.00304814
-0.00306016
-0.00238255
-0.00249855
-0.00262636
-0.00276508
-0.0029199
-0.00305876
-0.00306982
-0.00238457
-0.0025015
-0.00263078
-0.00277222
-0.00293139
-0.00307283
-0.00308263
-0.00238523
-0.00250245
-0.00263262
-0.00277706
-0.00293957
-0.00307785
-0.00308708
-0.00118385
-0.00124363
-0.00135295
-0.00146893
-0.00157361
-0.00166997
-0.00176047
-0.00117465
-0.00123476
-0.00134688
-0.00146353
-0.00156824
-0.00166531
-0.0017567
-0.00117372
-0.00123559
-0.00134754
-0.00146272
-0.00156651
-0.00166335
-0.00175478
-0.0011755
-0.00123834
-0.00134979
-0.00146373
-0.00156659
-0.00166288
-0.00175398
-0.00117716
-0.00124071
-0.00135193
-0.00146505
-0.00156715
-0.00166288
-0.0017536
-0.00117861
-0.00124282
-0.00135392
-0.00146645
-0.00156795
-0.00166317
-0.0017535
-0.00117972
-0.00124446
-0.00135555
-0.00146769
-0.00156874
-0.00166356
-0.00175357
-0.00142284
-0.00143923
-0.0014998
-0.00157718
-0.00165363
-0.0017283
-0.00180137
-0.00141231
-0.00142878
-0.00149276
-0.00157144
-0.00164837
-0.00172384
-0.00179779
-0.00140744
-0.00142588
-0.00149077
-0.00156915
-0.00164587
-0.00172148
-0.00179569
-0.00140586
-0.00142557
-0.00149069
-0.00156864
-0.001645
-0.00172043
-0.00179456
-0.00140507
-0.00142565
-0.00149097
-0.00156864
-0.00164469
-0.0017199
-0.00179387
-0.00140467
-0.00142599
-0.00149149
-0.00156897
-0.00164475
-0.0017197
-0.00179349
-0.00140445
-0.00142637
-0.00149204
-0.00156938
-0.00164495
-0.0017197
-0.00179331
-0.00160949
-0.00160087
-0.00162943
-0.0016772
-0.00172974
-0.00178509
-0.00184198
-0.001601
-0.0015916
-0.0016228
-0.00167169
-0.00172486
-0.00178104
-0.00183874
-0.00159538
-0.00158741
-0.00161964
-0.00166873
-0.00172208
-0.00177857
-0.00183663
-0.00159237
-0.00158553
-0.00161822
-0.00166732
-0.00172066
-0.0017772
-0.00183534
-0.00159035
-0.00158433
-0.00161738
-0.0016665
-0.0017198
-0.00177632
-0.00183445
-0.00158895
-0.00158362
-0.00161697
-0.0016661
-0.00171934
-0.00177579
-0.00183386
-0.00158796
-0.00158319
-0.00161678
-0.00166594
-0.00171913
-0.0017755
-0.0018335
-0.00175907
-0.00173287
-0.00173999
-0.00176603
-0.0017996
-0.0018385
-0.00188088
-0.00175255
-0.00172517
-0.00173417
-0.00176116
-0.00179535
-0.00183498
-0.00187805
-0.00174722
-0.00172083
-0.00173075
-0.00175811
-0.00179262
-0.00183263
-0.00187607
-0.00174373
-0.00171828
-0.00172874
-0.0017563
-0.00179096
-0.00183113
-0.00187474
-0.00174116
-0.00171644
-0.00172731
-0.00175504
-0.00178981
-0.00183007
-0.00187375
-0.00173924
-0.00171514
-0.00172635
-0.00175422
-0.00178905
-0.00182934
-0.00187305
-0.00173782
-0.00171423
-0.00172572
-0.00175369
-0.00178856
-0.00182886
-0.00187257
-0.00187515
-0.00184125
-0.00183318
-0.00184339
-0.00186213
-0.00188728
-0.00191696
-0.00187091
-0.00183497
-0.00182836
-0.00183935
-0.00185857
-0.00188431
-0.00191457
-0.00186647
-0.00183106
-0.00182519
-0.00183653
-0.00185608
-0.00188219
-0.00191279
-0.00186316
-0.00182843
-0.00182305
-0.00183465
-0.00185441
-0.00188072
-0.00191151
-0.00186056
-0.0018264
-0.00182141
-0.00183323
-0.00185315
-0.0018796
-0.00191052
-0.00185853
-0.00182487
-0.00182021
-0.00183221
-0.00185225
-0.00187878
-0.00190977
-0.00185698
-0.00182374
-0.00181935
-0.00183149
-0.00185161
-0.00187821
-0.00190923
-0.00196793
-0.00192905
-0.00191106
-0.00190979
-0.00191695
-0.00193078
-0.00194959
-0.00196538
-0.00192415
-0.00190726
-0.00190655
-0.00191405
-0.00192834
-0.0019476
-0.00196192
-0.0019209
-0.00190455
-0.00190413
-0.0019119
-0.0019265
-0.00194606
-0.00195908
-0.00191852
-0.00190255
-0.00190237
-0.00191034
-0.00192515
-0.00194489
-0.00195673
-0.00191659
-0.00190094
-0.00190097
-0.00190911
-0.00192407
-0.00194394
-0.00195482
-0.00191507
-0.0018997
-0.0018999
-0.00190818
-0.00192324
-0.00194321
-0.00195334
-0.00191391
-0.00189878
-0.00189912
-0.00190749
-0.00192263
-0.00194266
-0.00184584
-0.00192746
-0.00200713
-0.00208658
-0.00216742
-0.00225162
-0.00184285
-0.00192518
-0.00200546
-0.00208542
-0.00216674
-0.00225124
-0.0018411
-0.00192365
-0.00200414
-0.00208426
-0.00216567
-0.00225014
-0.00184014
-0.00192263
-0.0020031
-0.00208317
-0.00216446
-0.00224869
-0.00183953
-0.00192188
-0.00200222
-0.00208216
-0.00216326
-0.00224721
-0.00183917
-0.00192134
-0.00200152
-0.00208127
-0.00216216
-0.00224582
-0.00183899
-0.00192096
-0.00200097
-0.00208055
-0.00216123
-0.00224462
-0.00187246
-0.0019419
-0.00201046
-0.00207906
-0.00214815
-0.00221892
-0.00186966
-0.00193978
-0.00200893
-0.002078
-0.0021476
-0.00221873
-0.00186784
-0.00193826
-0.00200767
-0.00207692
-0.00214674
-0.00221797
-0.00186673
-0.0019372
-0.00200667
-0.00207593
-0.00214575
-0.00221689
-0.00186595
-0.00193637
-0.00200581
-0.00207502
-0.00214476
-0.00221573
-0.00186543
-0.00193576
-0.00200511
-0.00207422
-0.00214383
-0.00221463
-0.00186511
-0.00193532
-0.00200456
-0.00207356
-0.00214303
-0.00221367
-0.00189921
-0.00195634
-0.00201336
-0.00207033
-0.00212771
-0.00218524
-0.00189668
-0.00195444
-0.00201201
-0.00206949
-0.00212729
-0.00218518
-0.00189491
-0.001953
-0.00201088
-0.00206868
-0.00212663
-0.00218466
-0.00189373
-0.00195195
-0.00200995
-0.00206786
-0.00212585
-0.00218387
-0.00189286
-0.00195111
-0.00200915
-0.00206707
-0.00212504
-0.002183
-0.00189224
-0.00195046
-0.00200848
-0.00206637
-0.00212427
-0.00218214
-0.00189181
-0.00194998
-0.00200795
-0.00206579
-0.00212361
-0.00218138
-0.00192515
-0.00197041
-0.00201616
-0.00206201
-0.00210767
-0.00215263
-0.00192293
-0.00196874
-0.00201497
-0.00206127
-0.00210733
-0.00215263
-0.0019213
-0.00196743
-0.00201396
-0.00206052
-0.00210679
-0.00215227
-0.00192014
-0.00196643
-0.00201311
-0.0020598
-0.00210616
-0.00215169
-0.00191923
-0.00196561
-0.00201236
-0.00205911
-0.0021055
-0.00215103
-0.00191856
-0.00196496
-0.00201174
-0.00205849
-0.00210487
-0.00215037
-0.00191807
-0.00196447
-0.00201124
-0.00205798
-0.00210433
-0.00214978
-0.00194949
-0.0019837
-0.00201878
-0.00205404
-0.00208879
-0.00212227
-0.0019476
-0.00198227
-0.00201776
-0.00205339
-0.0020885
-0.00212229
-0.00194614
-0.00198111
-0.00201687
-0.00205274
-0.00208806
-0.00212203
-0.00194504
-0.00198018
-0.0020161
-0.00205212
-0.00208755
-0.0021216
-0.00194416
-0.00197941
-0.00201543
-0.00205152
-0.00208701
-0.00212111
-0.00194348
-0.00197879
-0.00201485
-0.00205098
-0.0020865
-0.0021206
-0.00194297
-0.0019783
-0.00201439
-0.00205053
-0.00208604
-0.00212014
-0.00197171
-0.00199591
-0.0020212
-0.00204671
-0.00207155
-0.0020948
-0.00197014
-0.00199471
-0.00202034
-0.00204616
-0.0020713
-0.00209481
-0.00196887
-0.0019937
-0.00201957
-0.0020456
-0.00207093
-0.00209462
-0.00196788
-0.00199287
-0.00201889
-0.00204506
-0.00207051
-0.00209429
-0.00196705
-0.00199216
-0.00201829
-0.00204454
-0.00207006
-0.00209391
-0.0019664
-0.00199158
-0.00201777
-0.00204408
-0.00206964
-0.00209351
-0.0019659
-0.00199112
-0.00201735
-0.00204368
-0.00206927
-0.00209315
-0.00234084
-0.00243606
-0.0025363
-0.00263999
-0.00274413
-0.00281546
-0.00280564
-0.00234061
-0.00243587
-0.00253582
-0.0026383
-0.00274209
-0.00281656
-0.00280388
-0.00233928
-0.00243408
-0.00253331
-0.00263446
-0.00273655
-0.00281116
-0.00280009
-0.00233743
-0.00243162
-0.00253004
-0.00263012
-0.00273104
-0.00280554
-0.00279575
-0.00233553
-0.00242916
-0.00252688
-0.00262614
-0.00272634
-0.00280081
-0.00279184
-0.00233377
-0.00242691
-0.00252406
-0.00262273
-0.00272243
-0.00279689
-0.00278851
-0.00233226
-0.00242503
-0.00252176
-0.00262001
-0.00271938
-0.00279384
-0.00278589
-0.00229172
-0.00236618
-0.00244036
-0.00251162
-0.00257574
-0.00260808
-0.00258414
-0.00229182
-0.00236653
-0.00244081
-0.00251175
-0.00257647
-0.00261186
-0.00258536
-0.00229102
-0.0023656
-0.0024396
-0.00250996
-0.00257411
-0.0026103
-0.00258508
-0.00228974
-0.00236401
-0.0024376
-0.00250742
-0.00257109
-0.00260752
-0.00258338
-0.00228836
-0.0023623
-0.0024355
-0.00250491
-0.00256827
-0.0026049
-0.00258145
-0.00228702
-0.00236067
-0.00243354
-0.00250262
-0.00256577
-0.00260253
-0.00257962
-0.00228585
-0.00235926
-0.00243187
-0.00250071
-0.00256371
-0.00260059
-0.00257808
-0.00224262
-0.00229881
-0.00235148
-0.00239768
-0.00243367
-0.00244194
-0.00240806
-0.00224289
-0.00229941
-0.00235235
-0.00239856
-0.00243513
-0.00244555
-0.00240925
-0.00224245
-0.002299
-0.0023519
-0.00239793
-0.00243437
-0.00244551
-0.00240994
-0.0022416
-0.00229802
-0.00235075
-0.00239656
-0.00243286
-0.00244432
-0.00240951
-0.00224062
-0.00229688
-0.00234943
-0.00239506
-0.00243127
-0.00244299
-0.00240873
-0.00223963
-0.00229574
-0.00234812
-0.00239359
-0.00242975
-0.00244166
-0.00240786
-0.00223875
-0.00229471
-0.00234695
-0.00239231
-0.00242843
-0.00244049
-0.00240703
-0.00219606
-0.00223658
-0.00227184
-0.00229907
-0.00231525
-0.00230751
-0.00226358
-0.00219638
-0.00223723
-0.00227279
-0.00230015
-0.00231681
-0.0023105
-0.00226441
-0.00219616
-0.00223711
-0.00227275
-0.00230011
-0.00231681
-0.00231107
-0.00226536
-0.0021956
-0.00223654
-0.00227214
-0.00229945
-0.00231616
-0.00231074
-0.00226557
-0.00219491
-0.0022358
-0.00227134
-0.0022986
-0.00231534
-0.00231016
-0.00226542
-0.0021942
-0.00223501
-0.00227049
-0.0022977
-0.00231446
-0.00230948
-0.00226511
-0.00219354
-0.00223429
-0.0022697
-0.00229687
-0.00231365
-0.00230882
-0.00226475
-0.00215341
-0.00218072
-0.00220202
-0.00221496
-0.00221709
-0.00219796
-0.00215175
-0.00215372
-0.00218132
-0.00220289
-0.00221594
-0.00221848
-0.00220047
-0.00215153
-0.00215362
-0.00218135
-0.00220304
-0.00221615
-0.00221877
-0.00220117
-0.00215228
-0.00215325
-0.00218103
-0.00220275
-0.00221587
-0.00221855
-0.00220121
-0.00215266
-0.00215277
-0.00218055
-0.00220228
-0.00221542
-0.00221817
-0.00220102
-0.00215276
-0.00215226
-0.00218002
-0.00220173
-0.00221488
-0.00221768
-0.0022007
-0.00215271
-0.00215177
-0.00217952
-0.0022012
-0.00221435
-0.0022172
-0.00220035
-0.00215259
-0.00211531
-0.00213161
-0.00214178
-0.00214388
-0.00213608
-0.00210976
-0.00206195
-0.00211557
-0.00213212
-0.0021425
-0.00214467
-0.00213716
-0.00211166
-0.00206105
-0.00211552
-0.00213221
-0.0021427
-0.00214492
-0.00213747
-0.00211226
-0.00206149
-0.00211527
-0.00213202
-0.00214257
-0.00214483
-0.00213744
-0.0021124
-0.00206181
-0.00211493
-0.00213171
-0.00214229
-0.00214459
-0.00213726
-0.00211236
-0.00206196
-0.00211456
-0.00213135
-0.00214195
-0.00214427
-0.002137
-0.00211223
-0.002062
-0.0021142
-0.00213099
-0.00214159
-0.00214394
-0.00213671
-0.00211205
-0.00206199
-0.00118045
-0.0012456
-0.00135673
-0.00146864
-0.00156939
-0.00166392
-0.00175368
-0.00118087
-0.00124631
-0.00135749
-0.00146928
-0.00156985
-0.00166418
-0.00175379
-0.00118107
-0.00124665
-0.00135785
-0.00146959
-0.00157008
-0.00166432
-0.00175384
-0.00118107
-0.00124664
-0.00135785
-0.00146959
-0.00157008
-0.00166432
-0.00175384
-0.00118087
-0.00124631
-0.00135748
-0.00146927
-0.00156985
-0.00166418
-0.00175378
-0.00118044
-0.0012456
-0.00135673
-0.00146864
-0.00156939
-0.00166391
-0.00175368
-0.0014043
-0.00142666
-0.00149248
-0.00156975
-0.00164518
-0.00171977
-0.00179323
-0.0014042
-0.00142685
-0.00149278
-0.00157002
-0.00164536
-0.00171985
-0.00179321
-0.00140414
-0.00142694
-0.00149293
-0.00157015
-0.00164546
-0.00171989
-0.0017932
-0.00140414
-0.00142694
-0.00149292
-0.00157015
-0.00164545
-0.00171989
-0.0017932
-0.00140419
-0.00142685
-0.00149277
-0.00157001
-0.00164536
-0.00171985
-0.00179321
-0.0014043
-0.00142666
-0.00149248
-0.00156975
-0.00164518
-0.00171977
-0.00179323
-0.00158726
-0.00158291
-0.0016167
-0.00166588
-0.00171904
-0.00177535
-0.00183328
-0.00158681
-0.00158274
-0.00161667
-0.00166587
-0.001719
-0.00177527
-0.00183315
-0.00158659
-0.00158266
-0.00161665
-0.00166587
-0.001719
-0.00177524
-0.0018331
-0.00158659
-0.00158266
-0.00161665
-0.00166587
-0.001719
-0.00177524
-0.0018331
-0.00158681
-0.00158274
-0.00161666
-0.00166587
-0.001719
-0.00177527
-0.00183315
-0.00158726
-0.00158291
-0.0016167
-0.00166588
-0.00171903
-0.00177534
-0.00183328
-0.00173681
-0.0017136
-0.00172531
-0.00175336
-0.00178826
-0.00182856
-0.00187225
-0.00173615
-0.00171321
-0.00172506
-0.00175316
-0.00178808
-0.00182838
-0.00187206
-0.00173583
-0.00171301
-0.00172494
-0.00175307
-0.001788
-0.00182829
-0.00187197
-0.00173582
-0.00171301
-0.00172494
-0.00175307
-0.001788
-0.00182829
-0.00187197
-0.00173615
-0.0017132
-0.00172506
-0.00175316
-0.00178808
-0.00182838
-0.00187206
-0.0017368
-0.0017136
-0.00172531
-0.00175336
-0.00178826
-0.00182856
-0.00187225
-0.00185587
-0.00182295
-0.00181875
-0.001831
-0.00185119
-0.00187781
-0.00190886
-0.00185514
-0.00182244
-0.00181838
-0.0018307
-0.00185092
-0.00187757
-0.00190862
-0.00185478
-0.00182219
-0.0018182
-0.00183055
-0.0018508
-0.00187745
-0.00190851
-0.00185478
-0.00182219
-0.0018182
-0.00183055
-0.0018508
-0.00187745
-0.00190851
-0.00185514
-0.00182243
-0.00181838
-0.00183069
-0.00185092
-0.00187757
-0.00190862
-0.00185587
-0.00182295
-0.00181875
-0.001831
-0.00185119
-0.00187781
-0.00190886
-0.00195226
-0.00191308
-0.00189812
-0.00189856
-0.00190701
-0.0019222
-0.00194227
-0.00195154
-0.00191254
-0.00189769
-0.00189821
-0.00190671
-0.00192193
-0.00194202
-0.00195119
-0.00191227
-0.00189748
-0.00189804
-0.00190656
-0.00192179
-0.00194189
-0.00195119
-0.00191227
-0.00189748
-0.00189804
-0.00190656
-0.00192179
-0.00194189
-0.00195154
-0.00191253
-0.00189769
-0.00189821
-0.00190671
-0.00192193
-0.00194201
-0.00195226
-0.00191308
-0.00189812
-0.00189856
-0.00190701
-0.0019222
-0.00194227
-0.00233109
-0.00242358
-0.00252003
-0.002618
-0.00271717
-0.00279166
-0.00278401
-0.0023303
-0.00242261
-0.00251888
-0.00261669
-0.00271574
-0.00279026
-0.00278279
-0.0023299
-0.00242213
-0.0025183
-0.00261604
-0.00271505
-0.00278958
-0.0027822
-0.0023299
-0.00242213
-0.0025183
-0.00261604
-0.00271504
-0.00278957
-0.0027822
-0.0023303
-0.00242261
-0.00251887
-0.00261668
-0.00271574
-0.00279026
-0.00278279
-0.00233109
-0.00242358
-0.00252002
-0.002618
-0.00271716
-0.00279166
-0.002784
-0.00228492
-0.00235815
-0.00243058
-0.00249926
-0.00256217
-0.00259913
-0.00257691
-0.00228429
-0.0023574
-0.00242971
-0.00249829
-0.00256115
-0.00259817
-0.00257613
-0.00228396
-0.00235701
-0.00242927
-0.0024978
-0.00256064
-0.00259769
-0.00257574
-0.00228396
-0.00235701
-0.00242927
-0.0024978
-0.00256064
-0.00259769
-0.00257574
-0.00228429
-0.00235739
-0.00242971
-0.00249829
-0.00256115
-0.00259816
-0.00257612
-0.00228492
-0.00235815
-0.00243058
-0.00249926
-0.00256217
-0.00259913
-0.0025769
-0.00223804
-0.00229389
-0.00234602
-0.0023913
-0.00242741
-0.00243956
-0.00240637
-0.00223754
-0.00229332
-0.00234538
-0.00239062
-0.00242671
-0.00243894
-0.00240591
-0.00223729
-0.00229303
-0.00234506
-0.00239027
-0.00242636
-0.00243862
-0.00240567
-0.00223729
-0.00229303
-0.00234506
-0.00239027
-0.00242636
-0.00243862
-0.00240567
-0.00223754
-0.00229332
-0.00234538
-0.00239062
-0.00242671
-0.00243894
-0.0024059
-0.00223803
-0.00229389
-0.00234602
-0.0023913
-0.0024274
-0.00243956
-0.00240636
-0.00219301
-0.00223369
-0.00226905
-0.00229619
-0.00231299
-0.00230827
-0.00226442
-0.00219263
-0.00223327
-0.0022686
-0.00229572
-0.00231254
-0.00230789
-0.00226419
-0.00219243
-0.00223306
-0.00226836
-0.00229548
-0.0023123
-0.00230769
-0.00226406
-0.00219243
-0.00223306
-0.00226836
-0.00229548
-0.0023123
-0.00230769
-0.00226406
-0.00219263
-0.00223327
-0.00226859
-0.00229572
-0.00231253
-0.00230788
-0.00226418
-0.002193
-0.00223369
-0.00226905
-0.00229619