/*--------------------------------*- C++ -*----------------------------------*\
  =========                 |
  \\      /  F ield         | OpenFOAM: The Open Source CFD Toolbox
   \\    /   O peration     | Website:  https://openfoam.org
    \\  /    A nd           | Version:  7
     \\/     M anipulation  |
\*---------------------------------------------------------------------------*/
FoamFile
{
    version     2.0;
    format      ascii;
    class       volVectorField;
    location    "2.75";
    object      U;
}
// * * * * * * * * * * * * * * * * * * * * * * * * * * * * * * * * * * * * * //

dimensions      [0 1 -1 0 0 0 0];

internalField   nonuniform List<vector> 
7784
(
(1.07417 -8.00421e-05 -0.000146542)
(1.07422 -6.37648e-05 -0.000110379)
(1.0743 -3.79521e-05 -4.95598e-05)
(1.07435 -2.06079e-05 -1.2524e-05)
(1.07436 -1.21142e-05 2.28111e-07)
(1.07437 -7.61958e-06 3.17669e-06)
(1.07437 -4.85548e-06 3.12289e-06)
(1.07419 -6.58042e-05 -0.000115417)
(1.07425 -5.17083e-05 -8.77947e-05)
(1.07432 -3.11249e-05 -3.94573e-05)
(1.07436 -1.8285e-05 -9.23207e-06)
(1.07437 -1.20049e-05 1.2744e-06)
(1.07437 -8.21581e-06 3.57676e-06)
(1.07437 -5.56548e-06 3.26409e-06)
(1.07421 -3.26344e-05 -0.000100695)
(1.07427 -2.73824e-05 -7.66634e-05)
(1.07433 -1.96267e-05 -3.37775e-05)
(1.07437 -1.38893e-05 -6.97651e-06)
(1.07437 -1.01715e-05 2.17419e-06)
(1.07437 -7.41863e-06 3.98098e-06)
(1.07437 -5.3043e-06 3.43812e-06)
(1.07421 -2.01909e-05 -9.50828e-05)
(1.07427 -1.79138e-05 -7.21855e-05)
(1.07434 -1.42359e-05 -3.11945e-05)
(1.07437 -1.09722e-05 -5.75898e-06)
(1.07437 -8.43224e-06 2.74508e-06)
(1.07437 -6.39121e-06 4.27421e-06)
(1.07437 -4.7425e-06 3.5759e-06)
(1.07422 -1.44201e-05 -9.29616e-05)
(1.07428 -1.30464e-05 -7.04113e-05)
(1.07434 -1.0824e-05 -3.00715e-05)
(1.07437 -8.68352e-06 -5.16327e-06)
(1.07438 -6.87995e-06 3.05971e-06)
(1.07437 -5.35571e-06 4.45033e-06)
(1.07437 -4.08534e-06 3.67008e-06)
(1.07422 -1.04215e-05 -9.21784e-05)
(1.07428 -9.52522e-06 -6.97301e-05)
(1.07434 -8.12107e-06 -2.96036e-05)
(1.07437 -6.70763e-06 -4.88461e-06)
(1.07438 -5.44247e-06 3.22767e-06)
(1.07438 -4.32162e-06 4.54869e-06)
(1.07437 -3.36367e-06 3.73221e-06)
(1.07422 -7.42174e-06 -9.18957e-05)
(1.07428 -6.84039e-06 -6.94674e-05)
(1.07434 -5.93569e-06 -2.94037e-05)
(1.07438 -4.99507e-06 -4.74863e-06)
(1.07438 -4.11776e-06 3.32189e-06)
(1.07438 -3.31654e-06 4.60811e-06)
(1.07437 -2.61625e-06 3.77282e-06)
(0.443817 -0.000105277 -0.000306)
(0.443864 -8.68014e-05 -0.000231762)
(0.443946 -5.71238e-05 -0.000116064)
(0.444024 -3.44047e-05 -4.72563e-05)
(0.444071 -2.13365e-05 -2.00625e-05)
(0.4441 -1.36156e-05 -9.30711e-06)
(0.444121 -8.74466e-06 -4.90282e-06)
(0.443846 -9.50673e-05 -0.000252415)
(0.443896 -7.86639e-05 -0.000193954)
(0.443971 -5.36661e-05 -9.93696e-05)
(0.444039 -3.46904e-05 -4.14918e-05)
(0.444079 -2.31173e-05 -1.78154e-05)
(0.444105 -1.55622e-05 -8.25531e-06)
(0.444124 -1.04256e-05 -4.4388e-06)
(0.443867 -6.49642e-05 -0.00022379)
(0.443918 -5.57516e-05 -0.000172769)
(0.44399 -4.17974e-05 -8.83739e-05)
(0.444051 -2.98838e-05 -3.66182e-05)
(0.444087 -2.1275e-05 -1.54796e-05)
(0.444111 -1.50064e-05 -7.04471e-06)
(0.444128 -1.04805e-05 -3.82255e-06)
(0.443879 -4.63409e-05 -0.000210847)
(0.443932 -4.09217e-05 -0.000162545)
(0.444001 -3.25228e-05 -8.22373e-05)
(0.44406 -2.46485e-05 -3.33669e-05)
(0.444094 -1.8335e-05 -1.37171e-05)
(0.444116 -1.34305e-05 -6.04951e-06)
(0.444132 -9.7007e-06 -3.26605e-06)
(0.443887 -3.40423e-05 -0.000204754)
(0.44394 -3.05192e-05 -0.000157502)
(0.444009 -2.51002e-05 -7.88985e-05)
(0.444067 -1.97608e-05 -3.13849e-05)
(0.444099 -1.52068e-05 -1.25361e-05)
(0.44412 -1.14899e-05 -5.32894e-06)
(0.444135 -8.5165e-06 -2.82748e-06)
(0.443891 -2.47036e-05 -0.000201844)
(0.443945 -2.23934e-05 -0.000155013)
(0.444014 -1.88891e-05 -7.71163e-05)
(0.444071 -1.53135e-05 -3.02157e-05)
(0.444103 -1.21063e-05 -1.17725e-05)
(0.444123 -9.3725e-06 -4.83083e-06)
(0.444137 -7.09059e-06 -2.50052e-06)
(0.443894 -1.74819e-05 -0.00020041)
(0.443948 -1.59908e-05 -0.00015374)
(0.444018 -1.3735e-05 -7.61368e-05)
(0.444074 -1.13693e-05 -2.95155e-05)
(0.444105 -9.16557e-06 -1.12791e-05)
(0.444125 -7.22299e-06 -4.49016e-06)
(0.444139 -5.55154e-06 -2.26556e-06)
(0.142005 -7.64261e-05 -0.0003243)
(0.14201 -6.55019e-05 -0.000266498)
(0.142047 -4.68044e-05 -0.000172116)
(0.142101 -3.07178e-05 -0.000103944)
(0.142144 -2.01869e-05 -6.45589e-05)
(0.142177 -1.33712e-05 -4.11662e-05)
(0.142202 -8.83761e-06 -2.7047e-05)
(0.14202 -7.58626e-05 -0.000288609)
(0.142027 -6.52249e-05 -0.00024052)
(0.142063 -4.80084e-05 -0.00015872)
(0.142112 -3.3173e-05 -9.77841e-05)
(0.142151 -2.29138e-05 -6.13772e-05)
(0.142182 -1.57772e-05 -3.94294e-05)
(0.142205 -1.07632e-05 -2.61245e-05)
(0.142034 -6.11133e-05 -0.000263932)
(0.142043 -5.32524e-05 -0.000221517)
(0.142077 -4.1277e-05 -0.00014731)
(0.142123 -3.03618e-05 -9.14854e-05)
(0.142159 -2.19736e-05 -5.77883e-05)
(0.142187 -1.56878e-05 -3.73701e-05)
(0.142209 -1.10429e-05 -2.49504e-05)
(0.142044 -4.74804e-05 -0.000249581)
(0.142054 -4.20174e-05 -0.000209804)
(0.142088 -3.38439e-05 -0.000139465)
(0.142131 -2.59973e-05 -8.66558e-05)
(0.142166 -1.95094e-05 -5.48432e-05)
(0.142193 -1.43746e-05 -3.55829e-05)
(0.142213 -1.04003e-05 -2.38608e-05)
(0.142051 -3.63554e-05 -0.000241192)
(0.142062 -3.25623e-05 -0.000202731)
(0.142095 -2.69584e-05 -0.000134402)
(0.142138 -2.13803e-05 -8.33034e-05)
(0.142171 -1.65244e-05 -5.26669e-05)
(0.142197 -1.25028e-05 -3.41799e-05)
(0.142216 -9.25497e-06 -2.29585e-05)
(0.142055 -2.71219e-05 -0.000236367)
(0.142066 -2.45339e-05 -0.000198568)
(0.1421 -2.07468e-05 -0.000131257)
(0.142142 -1.68702e-05 -8.10816e-05)
(0.142175 -1.33513e-05 -5.11353e-05)
(0.1422 -1.03211e-05 -3.31352e-05)
(0.142219 -7.7835e-06 -2.22565e-05)
(0.142058 -1.95341e-05 -0.000233576)
(0.14207 -1.78141e-05 -0.000196106)
(0.142104 -1.53021e-05 -0.000129311)
(0.142146 -1.2673e-05 -7.96321e-05)
(0.142178 -1.02091e-05 -5.00867e-05)
(0.142203 -8.02177e-06 -3.23883e-05)
(0.142221 -6.13768e-06 -2.17354e-05)
(1.07437 -3.12137e-06 2.15215e-06)
(1.07437 -1.9966e-06 1.0779e-06)
(1.07437 -1.20461e-06 1.2348e-07)
(1.07437 -5.89567e-07 -7.69047e-07)
(1.07437 -5.02273e-08 -1.73723e-06)
(1.07438 4.96421e-07 -2.95632e-06)
(1.07437 -3.76291e-06 2.18582e-06)
(1.07437 -2.51097e-06 1.08278e-06)
(1.07437 -1.58589e-06 1.2767e-07)
(1.07437 -8.5273e-07 -7.58704e-07)
(1.07437 -2.19989e-07 -1.71939e-06)
(1.07438 3.8886e-07 -2.93278e-06)
(1.07437 -3.7545e-06 2.26049e-06)
(1.07437 -2.59259e-06 1.11562e-06)
(1.07437 -1.69315e-06 1.45925e-07)
(1.07437 -9.65724e-07 -7.44939e-07)
(1.07437 -3.41511e-07 -1.70654e-06)
(1.07438 2.36168e-07 -2.92012e-06)
(1.07437 -3.46499e-06 2.33562e-06)
(1.07437 -2.45926e-06 1.15737e-06)
(1.07437 -1.65089e-06 1.70234e-07)
(1.07437 -9.83781e-07 -7.29519e-07)
(1.07437 -4.08696e-07 -1.69644e-06)
(1.07438 1.14228e-07 -2.91172e-06)
(1.07437 -3.05236e-06 2.39123e-06)
(1.07437 -2.21262e-06 1.19391e-06)
(1.07437 -1.51731e-06 1.93153e-07)
(1.07437 -9.32767e-07 -7.14477e-07)
(1.07437 -4.24545e-07 -1.68592e-06)
(1.07438 3.74878e-08 -2.90213e-06)
(1.07437 -2.55758e-06 2.43234e-06)
(1.07437 -1.88401e-06 1.22373e-06)
(1.07437 -1.31309e-06 2.12729e-07)
(1.07437 -8.25383e-07 -7.01188e-07)
(1.07437 -3.9707e-07 -1.6763e-06)
(1.07438 -5.92552e-09 -2.89278e-06)
(1.07437 -2.01543e-06 2.46201e-06)
(1.07437 -1.50286e-06 1.24705e-06)
(1.07437 -1.06016e-06 2.2844e-07)
(1.07437 -6.77026e-07 -6.90265e-07)
(1.07437 -3.37387e-07 -1.6681e-06)
(1.07438 -2.55205e-08 -2.88478e-06)
(0.444135 -5.62399e-06 -3.32079e-06)
(0.444145 -3.53085e-06 -2.80725e-06)
(0.444151 -2.01119e-06 -2.69916e-06)
(0.444154 -7.87787e-07 -2.85699e-06)
(0.444155 3.44048e-07 -3.3044e-06)
(0.444154 1.57085e-06 -4.0321e-06)
(0.444137 -6.94334e-06 -3.12759e-06)
(0.444146 -4.49667e-06 -2.7188e-06)
(0.444152 -2.65994e-06 -2.65123e-06)
(0.444155 -1.1619e-06 -2.82643e-06)
(0.444156 2.05251e-07 -3.28198e-06)
(0.444155 1.63398e-06 -4.04227e-06)
(0.44414 -7.20853e-06 -2.80836e-06)
(0.444148 -4.79101e-06 -2.54746e-06)
(0.444153 -2.91465e-06 -2.55779e-06)
(0.444156 -1.35788e-06 -2.77982e-06)
(0.444157 5.69857e-08 -3.27017e-06)
(0.444156 1.49725e-06 -4.08433e-06)
(0.444143 -6.85474e-06 -2.48541e-06)
(0.44415 -4.65716e-06 -2.35871e-06)
(0.444155 -2.9008e-06 -2.45064e-06)
(0.444158 -1.41739e-06 -2.72728e-06)
(0.444159 -6.67675e-08 -3.26141e-06)
(0.444157 1.28322e-06 -4.12737e-06)
(0.444145 -6.15235e-06 -2.21383e-06)
(0.444152 -4.25776e-06 -2.18931e-06)
(0.444157 -2.70396e-06 -2.35001e-06)
(0.444159 -1.36947e-06 -2.67544e-06)
(0.44416 -1.49447e-07 -3.24914e-06)
(0.444159 1.05684e-06 -4.15744e-06)
(0.444147 -5.21308e-06 -1.9993e-06)
(0.444154 -3.6633e-06 -2.04895e-06)
(0.444158 -2.36344e-06 -2.26352e-06)
(0.44416 -1.23026e-06 -2.62886e-06)
(0.444161 -1.89263e-07 -3.2354e-06)
(0.44416 8.32789e-07 -4.17689e-06)
(0.444149 -4.13688e-06 -1.83776e-06)
(0.444155 -2.9418e-06 -1.93919e-06)
(0.444159 -1.9215e-06 -2.19399e-06)
(0.444161 -1.02106e-06 -2.59013e-06)
(0.444162 -1.9002e-07 -3.22245e-06)
(0.444161 6.22e-07 -4.18919e-06)
(0.14222 -5.78384e-06 -1.81914e-05)
(0.142231 -3.64022e-06 -1.21478e-05)
(0.142238 -2.02545e-06 -7.64207e-06)
(0.142241 -6.81466e-07 -3.96622e-06)
(0.142239 6.00528e-07 -6.07183e-07)
(0.142234 1.99438e-06 2.98492e-06)
(0.142222 -7.23616e-06 -1.76954e-05)
(0.142233 -4.67107e-06 -1.18766e-05)
(0.142239 -2.69174e-06 -7.50199e-06)
(0.142242 -1.03083e-06 -3.91394e-06)
(0.14224 5.34373e-07 -6.32396e-07)
(0.142235 2.18252e-06 2.85049e-06)
(0.142225 -7.61327e-06 -1.70212e-05)
(0.142235 -5.01998e-06 -1.14897e-05)
(0.142241 -2.96545e-06 -7.29471e-06)
(0.142243 -1.21954e-06 -3.83358e-06)
(0.142242 4.14259e-07 -6.64929e-07)
(0.142236 2.10465e-06 2.67554e-06)
(0.142228 -7.33334e-06 -1.63612e-05)
(0.142237 -4.92891e-06 -1.10952e-05)
(0.142243 -2.97445e-06 -7.07539e-06)
(0.142245 -1.29019e-06 -3.74335e-06)
(0.142243 2.82696e-07 -6.90006e-07)
(0.142238 1.88605e-06 2.51621e-06)
(0.14223 -6.6522e-06 -1.57875e-05)
(0.142239 -4.54588e-06 -1.07401e-05)
(0.142245 -2.79331e-06 -6.87105e-06)
(0.142247 -1.26247e-06 -3.6539e-06)
(0.142245 1.67714e-07 -7.035e-07)
(0.14224 1.60828e-06 2.38892e-06)
(0.142233 -5.68396e-06 -1.53234e-05)
(0.142241 -3.93873e-06 -1.04435e-05)
(0.142246 -2.45686e-06 -6.69493e-06)
(0.142248 -1.14668e-06 -3.57266e-06)
(0.142246 7.90817e-08 -7.07624e-07)
(0.142241 1.30214e-06 2.29339e-06)
(0.142234 -4.53815e-06 -1.49679e-05)
(0.142243 -3.17979e-06 -1.02102e-05)
(0.142248 -2.00734e-06 -6.55286e-06)
(0.142249 -9.60248e-07 -3.5044e-06)
(0.142247 2.10108e-08 -7.06369e-07)
(0.142242 9.93118e-07 2.22486e-06)
(1.07438 1.13644e-06 -4.5359e-06)
(1.07438 2.0145e-06 -6.47019e-06)
(1.07439 3.30357e-06 -7.85302e-06)
(1.0744 5.65655e-06 -4.15299e-06)
(1.07437 1.24481e-05 1.71624e-05)
(1.07429 2.83453e-05 7.41901e-05)
(1.07425 4.31073e-05 0.000151741)
(1.07438 1.03325e-06 -4.51299e-06)
(1.07439 1.81363e-06 -6.46626e-06)
(1.07439 2.80981e-06 -7.97071e-06)
(1.0744 4.38945e-06 -4.94506e-06)
(1.07438 9.10828e-06 1.38964e-05)
(1.0743 2.15096e-05 6.49088e-05)
(1.07425 3.38573e-05 0.000136526)
(1.07438 8.08382e-07 -4.50673e-06)
(1.07439 1.42712e-06 -6.48105e-06)
(1.07439 2.15101e-06 -8.08882e-06)
(1.0744 3.16635e-06 -5.5719e-06)
(1.07438 5.23948e-06 1.18575e-05)
(1.07431 1.00312e-05 6.00354e-05)
(1.07426 1.51379e-05 0.000129119)
(1.07438 6.17689e-07 -4.5034e-06)
(1.07439 1.1328e-06 -6.48477e-06)
(1.07439 1.70706e-06 -8.13675e-06)
(1.0744 2.49719e-06 -5.86835e-06)
(1.07438 3.77128e-06 1.09844e-05)
(1.07431 6.17435e-06 5.80935e-05)
(1.07426 8.74578e-06 0.000126245)
(1.07438 4.79051e-07 -4.49478e-06)
(1.07439 9.25176e-07 -6.47275e-06)
(1.07439 1.41523e-06 -8.12953e-06)
(1.0744 2.07081e-06 -5.97786e-06)
(1.07438 3.01184e-06 1.06533e-05)
(1.07431 4.49905e-06 5.7379e-05)
(1.07426 6.0357e-06 0.000125197)
(1.07438 3.67937e-07 -4.48498e-06)
(1.07439 7.45506e-07 -6.4583e-06)
(1.07439 1.1615e-06 -8.1155e-06)
(1.0744 1.68467e-06 -6.01422e-06)
(1.07438 2.37212e-06 1.05349e-05)
(1.07431 3.32319e-06 5.71313e-05)
(1.07426 4.2709e-06 0.000124841)
(1.07438 2.73099e-07 -4.47629e-06)
(1.07439 5.74592e-07 -6.44479e-06)
(1.0744 9.07851e-07 -8.10429e-06)
(1.0744 1.30712e-06 -6.02438e-06)
(1.07438 1.79988e-06 1.04956e-05)
(1.07431 2.42034e-06 5.70511e-05)
(1.07426 3.01481e-06 0.000124731)
(0.44415 3.12049e-06 -4.87289e-06)
(0.444142 5.35823e-06 -4.85671e-06)
(0.444129 8.79446e-06 -4.28852e-07)
(0.444105 1.47074e-05 1.92712e-05)
(0.444048 2.72456e-05 7.92553e-05)
(0.443976 4.86422e-05 0.000206232)
(0.44397 6.46818e-05 0.000353263)
(0.444151 3.33163e-06 -4.95661e-06)
(0.444144 5.62337e-06 -5.13375e-06)
(0.444132 8.88783e-06 -1.24781e-06)
(0.44411 1.39108e-05 1.66821e-05)
(0.444059 2.40822e-05 7.10629e-05)
(0.443988 4.20359e-05 0.000185848)
(0.443975 5.6307e-05 0.000321773)
(0.444153 3.12745e-06 -5.09212e-06)
(0.444146 5.18419e-06 -5.47148e-06)
(0.444134 7.94666e-06 -2.09194e-06)
(0.444114 1.17849e-05 1.44471e-05)
(0.444066 1.80733e-05 6.54236e-05)
(0.443995 2.77244e-05 0.000174093)
(0.443979 3.5766e-05 0.000304885)
(0.444154 2.75932e-06 -5.21223e-06)
(0.444148 4.52922e-06 -5.73213e-06)
(0.444137 6.78746e-06 -2.66546e-06)
(0.444117 9.73772e-06 1.31074e-05)
(0.444071 1.39688e-05 6.24904e-05)
(0.444 1.96765e-05 0.00016859)
(0.443983 2.44251e-05 0.000297314)
(0.444156 2.34356e-06 -5.29701e-06)
(0.444149 3.82868e-06 -5.90419e-06)
(0.444139 5.63898e-06 -3.00919e-06)
(0.44412 7.88782e-06 1.23633e-05)
(0.444074 1.08495e-05 6.10122e-05)
(0.444004 1.44931e-05 0.000166019)
(0.443986 1.74827e-05 0.000293876)
(0.444157 1.90263e-06 -5.35481e-06)
(0.444151 3.10097e-06 -6.01736e-06)
(0.444141 4.50215e-06 -3.22165e-06)
(0.444122 6.17116e-06 1.19468e-05)
(0.444077 8.21601e-06 6.02618e-05)
(0.444006 1.05556e-05 0.000164814)
(0.443988 1.24471e-05 0.00029232)
(0.444158 1.46012e-06 -5.39362e-06)
(0.444152 2.37827e-06 -6.09103e-06)
(0.444142 3.41664e-06 -3.35577e-06)
(0.444123 4.61263e-06 1.17076e-05)
(0.444078 6.00051e-06 5.98684e-05)
(0.444008 7.50308e-06 0.000164231)
(0.443989 8.69568e-06 0.000291598)
(0.142223 3.74798e-06 7.65746e-06)
(0.142205 6.20202e-06 1.5388e-05)
(0.142179 9.81342e-06 3.06316e-05)
(0.142142 1.55108e-05 6.27422e-05)
(0.142089 2.54061e-05 0.000130066)
(0.142048 3.88158e-05 0.00024837)
(0.142069 4.64881e-05 0.000370164)
(0.142224 4.16331e-06 7.34065e-06)
(0.142207 6.79445e-06 1.47061e-05)
(0.142182 1.04442e-05 2.92169e-05)
(0.142147 1.57596e-05 5.96901e-05)
(0.142096 2.45436e-05 0.000122512)
(0.142054 3.66963e-05 0.000231717)
(0.142071 4.42393e-05 0.000345605)
(0.142226 4.05894e-06 6.94847e-06)
(0.142209 6.52231e-06 1.39183e-05)
(0.142185 9.77481e-06 2.76701e-05)
(0.142151 1.41738e-05 5.66663e-05)
(0.142103 2.04779e-05 0.000116345)
(0.14206 2.85233e-05 0.000220274)
(0.142074 3.4257e-05 0.000329752)
(0.142228 3.68108e-06 6.60116e-06)
(0.142212 5.84387e-06 1.32581e-05)
(0.142188 8.56825e-06 2.64533e-05)
(0.142155 1.20598e-05 5.44666e-05)
(0.142108 1.66175e-05 0.000112346)
(0.142065 2.20033e-05 0.000213618)
(0.142078 2.60187e-05 0.000320985)
(0.14223 3.18012e-06 6.32572e-06)
(0.142214 5.00428e-06 1.27551e-05)
(0.142191 7.20454e-06 2.55753e-05)
(0.142159 9.89241e-06 5.29871e-05)
(0.142111 1.31791e-05 0.000109861)
(0.142069 1.68375e-05 0.000209765)
(0.142081 1.95856e-05 0.000316069)
(0.142231 2.60956e-06 6.11875e-06)
(0.142216 4.08072e-06 1.23894e-05)
(0.142193 5.78909e-06 2.49698e-05)
(0.142161 7.78959e-06 5.20255e-05)
(0.142114 1.01056e-05 0.000108359)
(0.142071 1.25615e-05 0.00020758)
(0.142083 1.44021e-05 0.00031336)
(0.142232 2.01624e-06 5.96943e-06)
(0.142217 3.14007e-06 1.21317e-05)
(0.142194 4.40595e-06 2.45616e-05)
(0.142163 5.83902e-06 5.14079e-05)
(0.142116 7.42959e-06 0.00010745)
(0.142073 9.05318e-06 0.000206331)
(0.142084 1.02597e-05 0.000311857)
(1.07422 -5.00454e-06 -9.17905e-05)
(1.07428 -4.63717e-06 -6.93589e-05)
(1.07434 -4.06532e-06 -2.93112e-05)
(1.07438 -3.45933e-06 -4.67746e-06)
(1.07438 -2.88074e-06 3.37704e-06)
(1.07438 -2.34238e-06 4.64471e-06)
(1.07437 -1.86325e-06 3.79768e-06)
(1.07422 -2.89737e-06 -9.17491e-05)
(1.07428 -2.6926e-06 -6.93112e-05)
(1.07435 -2.37425e-06 -2.92663e-05)
(1.07438 -2.03356e-06 -4.63972e-06)
(1.07438 -1.70397e-06 3.40849e-06)
(1.07438 -1.39366e-06 4.66599e-06)
(1.07438 -1.11365e-06 3.81014e-06)
(1.07422 -9.48351e-07 -9.1734e-05)
(1.07428 -8.82275e-07 -6.92924e-05)
(1.07435 -7.79908e-07 -2.92475e-05)
(1.07438 -6.69964e-07 -4.62303e-06)
(1.07438 -5.62961e-07 3.42296e-06)
(1.07438 -4.61643e-07 4.67583e-06)
(1.07438 -3.69615e-07 3.8153e-06)
(1.07422 9.5102e-07 -9.17341e-05)
(1.07428 8.85673e-07 -6.92924e-05)
(1.07435 7.83466e-07 -2.92475e-05)
(1.07438 6.73387e-07 -4.62305e-06)
(1.07438 5.6617e-07 3.42294e-06)
(1.07438 4.64608e-07 4.67582e-06)
(1.07438 3.72333e-07 3.81529e-06)
(1.07422 2.90012e-06 -9.17491e-05)
(1.07428 2.6961e-06 -6.93113e-05)
(1.07435 2.37791e-06 -2.92664e-05)
(1.07438 2.03707e-06 -4.63978e-06)
(1.07438 1.70725e-06 3.40844e-06)
(1.07438 1.39667e-06 4.66595e-06)
(1.07438 1.1164e-06 3.81012e-06)
(1.07422 5.00741e-06 -9.17905e-05)
(1.07428 4.64089e-06 -6.9359e-05)
(1.07434 4.06921e-06 -2.93113e-05)
(1.07438 3.46303e-06 -4.67756e-06)
(1.07438 2.88417e-06 3.37695e-06)
(1.07438 2.34549e-06 4.64465e-06)
(1.07437 1.86606e-06 3.79763e-06)
(0.443896 -1.16685e-05 -0.000199667)
(0.44395 -1.0741e-05 -0.000153056)
(0.44402 -9.33663e-06 -7.55809e-05)
(0.444076 -7.83605e-06 -2.90929e-05)
(0.444107 -6.40237e-06 -1.09649e-05)
(0.444127 -5.10858e-06 -4.26433e-06)
(0.44414 -3.97201e-06 -2.10533e-06)
(0.443896 -6.69986e-06 -0.000199281)
(0.443951 -6.19139e-06 -0.000152693)
(0.444021 -5.4211e-06 -7.52742e-05)
(0.444077 -4.58872e-06 -2.88503e-05)
(0.444108 -3.78082e-06 -1.07781e-05)
(0.444127 -3.04074e-06 -4.12665e-06)
(0.444141 -2.38227e-06 -2.00691e-06)
(0.443897 -2.18382e-06 -0.000199114)
(0.443951 -2.0215e-06 -0.000152533)
(0.444021 -1.77593e-06 -7.51368e-05)
(0.444078 -1.50921e-06 -2.87392e-05)
(0.444109 -1.2484e-06 -1.06909e-05)
(0.444128 -1.00772e-06 -4.0614e-06)
(0.444142 -7.92238e-07 -1.96011e-06)
(0.443897 2.18898e-06 -0.000199114)
(0.443951 2.0276e-06 -0.000152533)
(0.444021 1.78206e-06 -7.51369e-05)
(0.444078 1.51503e-06 -2.87392e-05)
(0.444109 1.25378e-06 -1.06909e-05)
(0.444128 1.01264e-06 -4.06145e-06)
(0.444142 7.96704e-07 -1.96014e-06)
(0.443896 6.70514e-06 -0.000199281)
(0.443951 6.19764e-06 -0.000152693)
(0.444021 5.42739e-06 -7.52744e-05)
(0.444077 4.59466e-06 -2.88505e-05)
(0.444108 3.7863e-06 -1.07783e-05)
(0.444127 3.04572e-06 -4.12678e-06)
(0.444141 2.38677e-06 -2.00701e-06)
(0.443896 1.16741e-05 -0.000199667)
(0.44395 1.07476e-05 -0.000153057)
(0.44402 9.34325e-06 -7.55812e-05)
(0.444076 7.84227e-06 -2.90932e-05)
(0.444107 6.40804e-06 -1.09652e-05)
(0.444126 5.11369e-06 -4.26455e-06)
(0.44414 3.97658e-06 -2.1055e-06)
(0.142059 -1.31696e-05 -0.00023195)
(0.142072 -1.20814e-05 -0.000194644)
(0.142106 -1.04905e-05 -0.000128116)
(0.142148 -8.79855e-06 -7.87083e-05)
(0.14218 -7.17694e-06 -4.93946e-05)
(0.142204 -5.70537e-06 -3.18792e-05)
(0.142223 -4.41153e-06 -2.13695e-05)
(0.14206 -7.60289e-06 -0.000231042)
(0.142073 -7.00127e-06 -0.000193818)
(0.142107 -6.12063e-06 -0.000127426)
(0.142149 -5.17439e-06 -7.81611e-05)
(0.142181 -4.25441e-06 -4.89745e-05)
(0.142205 -3.40749e-06 -3.15631e-05)
(0.142224 -2.65283e-06 -2.11369e-05)
(0.142061 -2.48421e-06 -0.000230635)
(0.142074 -2.29155e-06 -0.000193444)
(0.142108 -2.00966e-06 -0.00012711)
(0.14215 -1.70534e-06 -7.79065e-05)
(0.142182 -1.40741e-06 -4.87762e-05)
(0.142206 -1.13121e-06 -3.14119e-05)
(0.142224 -8.83462e-07 -2.10241e-05)
(0.142061 2.48998e-06 -0.000230635)
(0.142074 2.29811e-06 -0.000193445)
(0.142108 2.01615e-06 -0.00012711)
(0.14215 1.71144e-06 -7.79066e-05)
(0.142182 1.41301e-06 -4.87763e-05)
(0.142206 1.13627e-06 -3.1412e-05)
(0.142224 8.88017e-07 -2.10242e-05)
(0.14206 7.60877e-06 -0.000231043)
(0.142073 7.00797e-06 -0.000193819)
(0.142107 6.12725e-06 -0.000127427)
(0.142149 5.1806e-06 -7.81615e-05)
(0.142181 4.26009e-06 -4.89748e-05)
(0.142205 3.41261e-06 -3.15634e-05)
(0.142224 2.6574e-06 -2.11371e-05)
(0.142059 1.31757e-05 -0.00023195)
(0.142072 1.20884e-05 -0.000194645)
(0.142106 1.04974e-05 -0.000128117)
(0.142148 8.805e-06 -7.87089e-05)
(0.14218 7.18279e-06 -4.93951e-05)
(0.142204 5.7106e-06 -3.18796e-05)
(0.142223 4.41617e-06 -2.13699e-05)
(1.07437 -1.44931e-06 2.48206e-06)
(1.07437 -1.09031e-06 1.26412e-06)
(1.07437 -7.757e-07 2.40141e-07)
(1.07437 -5.00729e-07 -6.82011e-07)
(1.07438 -2.55151e-07 -1.66184e-06)
(1.07438 -2.84687e-08 -2.87859e-06)
(1.07437 -8.72022e-07 2.49426e-06)
(1.07437 -6.59764e-07 1.2753e-06)
(1.07437 -4.71881e-07 2.47877e-07)
(1.07437 -3.0658e-07 -6.76508e-07)
(1.07438 -1.58185e-07 -1.65763e-06)
(1.07438 -2.06765e-08 -2.87443e-06)
(1.07437 -2.90242e-07 2.50004e-06)
(1.07437 -2.2009e-07 1.28083e-06)
(1.07437 -1.57682e-07 2.51719e-07)
(1.07437 -1.0259e-07 -6.73765e-07)
(1.07438 -5.29962e-08 -1.65554e-06)
(1.07438 -6.94256e-09 -2.87236e-06)
(1.07437 2.92727e-07 2.50003e-06)
(1.07437 2.22364e-07 1.28082e-06)
(1.07437 1.59772e-07 2.5171e-07)
(1.07437 1.04531e-07 -6.73774e-07)
(1.07438 5.48228e-08 -1.65554e-06)
(1.07438 8.6862e-09 -2.87236e-06)
(1.07437 8.74523e-07 2.49423e-06)
(1.07437 6.62042e-07 1.27527e-06)
(1.07437 4.73969e-07 2.47851e-07)
(1.07437 3.08514e-07 -6.7653e-07)
(1.07438 1.60001e-07 -1.65765e-06)
(1.07438 2.24076e-08 -2.87444e-06)
(1.07437 1.45184e-06 2.48202e-06)
(1.07437 1.09259e-06 1.26408e-06)
(1.07437 7.77779e-07 2.40102e-07)
(1.07437 5.02644e-07 -6.82045e-07)
(1.07438 2.56944e-07 -1.66186e-06)
(1.07438 3.01737e-08 -2.8786e-06)
(0.44415 -2.98801e-06 -1.72338e-06)
(0.444156 -2.14315e-06 -1.85908e-06)
(0.44416 -1.4125e-06 -2.14219e-06)
(0.444162 -7.61713e-07 -2.56055e-06)
(0.444163 -1.58897e-07 -3.21174e-06)
(0.444162 4.28588e-07 -4.19677e-06)
(0.44415 -1.80263e-06 -1.6506e-06)
(0.444157 -1.30006e-06 -1.80691e-06)
(0.44416 -8.6179e-07 -2.10799e-06)
(0.444163 -4.69007e-07 -2.54068e-06)
(0.444163 -1.04244e-07 -3.20422e-06)
(0.444162 2.50725e-07 -4.2012e-06)
(0.444151 -6.01019e-07 -1.61527e-06)
(0.444157 -4.34414e-07 -1.78124e-06)
(0.444161 -2.88516e-07 -2.09103e-06)
(0.444163 -1.57349e-07 -2.53073e-06)
(0.444163 -3.53671e-08 -3.20037e-06)
(0.444162 8.32795e-08 -4.20328e-06)
(0.444151 6.05059e-07 -1.61531e-06)
(0.444157 4.38075e-07 -1.78127e-06)
(0.444161 2.91861e-07 -2.09106e-06)
(0.444163 1.60435e-07 -2.53076e-06)
(0.444163 3.82538e-08 -3.20039e-06)
(0.444162 -8.05299e-08 -4.2033e-06)
(0.44415 1.80668e-06 -1.65069e-06)
(0.444157 1.30372e-06 -1.807e-06)
(0.44416 8.65124e-07 -2.10807e-06)
(0.444163 4.72076e-07 -2.54075e-06)
(0.444163 1.07114e-07 -3.20427e-06)
(0.444162 -2.4799e-07 -4.20124e-06)
(0.44415 2.99209e-06 -1.72353e-06)
(0.444156 2.14681e-06 -1.85922e-06)
(0.44416 1.41581e-06 -2.14232e-06)
(0.444162 7.64749e-07 -2.56066e-06)
(0.444163 1.61731e-07 -3.21182e-06)
(0.444162 -4.25879e-07 -4.19683e-06)
(0.142236 -3.29153e-06 -1.47125e-05)
(0.142244 -2.32527e-06 -1.00392e-05)
(0.142249 -1.48098e-06 -6.44667e-06)
(0.14225 -7.21183e-07 -3.45175e-06)
(0.142248 -8.09875e-09 -7.02708e-07)
(0.142243 6.94789e-07 2.17822e-06)
(0.142236 -1.99094e-06 -1.45479e-05)
(0.142245 -1.41398e-06 -9.92767e-06)
(0.142249 -9.05751e-07 -6.37638e-06)
(0.142251 -4.46038e-07 -3.41612e-06)
(0.142249 -1.41235e-08 -6.99041e-07)
(0.142243 4.10259e-07 2.14934e-06)
(0.142237 -6.64763e-07 -1.44675e-05)
(0.142245 -4.73139e-07 -9.87272e-06)
(0.14225 -3.03661e-07 -6.34147e-06)
(0.142251 -1.4996e-07 -3.39819e-06)
(0.142249 -5.46037e-09 -6.96875e-07)
(0.142244 1.36316e-07 2.13553e-06)
(0.142237 6.68842e-07 -1.44675e-05)
(0.142245 4.76796e-07 -9.87278e-06)
(0.14225 3.06959e-07 -6.34153e-06)
(0.142251 1.52957e-07 -3.39824e-06)
(0.142249 8.21977e-09 -6.9692e-07)
(0.142244 -1.33728e-07 2.13549e-06)
(0.142236 1.99503e-06 -1.45481e-05)
(0.142245 1.41763e-06 -9.92785e-06)
(0.142249 9.09037e-07 -6.37654e-06)
(0.142251 4.49019e-07 -3.41626e-06)
(0.142249 1.68701e-08 -6.9917e-07)
(0.142243 -4.07676e-07 2.14922e-06)
(0.142236 3.29564e-06 -1.47128e-05)
(0.142244 2.32891e-06 -1.00395e-05)
(0.142249 1.48424e-06 -6.44693e-06)
(0.14225 7.24135e-07 -3.45198e-06)
(0.142248 1.08238e-08 -7.02918e-07)
(0.142243 -6.92215e-07 2.17802e-06)
(1.07438 1.89037e-07 -4.46958e-06)
(1.07439 4.08654e-07 -6.43397e-06)
(1.0744 6.50987e-07 -8.09659e-06)
(1.0744 9.32541e-07 -6.02643e-06)
(1.07439 1.26619e-06 1.04831e-05)
(1.07431 1.66166e-06 5.70266e-05)
(1.07426 2.02822e-06 0.000124701)
(1.07438 1.1151e-07 -4.46529e-06)
(1.07439 2.45077e-07 -6.4273e-06)
(1.0744 3.91691e-07 -8.09229e-06)
(1.0744 5.58976e-07 -6.02668e-06)
(1.07439 7.52345e-07 1.04791e-05)
(1.07432 9.73506e-07 5.70194e-05)
(1.07426 1.17405e-06 0.000124694)
(1.07438 3.73754e-08 -4.46323e-06)
(1.07439 8.21807e-08 -6.42426e-06)
(1.0744 1.31191e-07 -8.09045e-06)
(1.0744 1.86639e-07 -6.0267e-06)
(1.07439 2.49976e-07 1.04778e-05)
(1.07432 3.21236e-07 5.70175e-05)
(1.07426 3.85132e-07 0.000124693)
(1.07438 -3.5697e-08 -4.46323e-06)
(1.07439 -8.05511e-08 -6.42426e-06)
(1.0744 -1.29595e-07 -8.09045e-06)
(1.0744 -1.85061e-07 -6.0267e-06)
(1.07439 -2.48385e-07 1.04778e-05)
(1.07432 -3.19571e-07 5.70175e-05)
(1.07426 -3.83496e-07 0.000124693)
(1.07438 -1.09842e-07 -4.46529e-06)
(1.07439 -2.43454e-07 -6.42731e-06)
(1.0744 -3.90095e-07 -8.09229e-06)
(1.0744 -5.57389e-07 -6.02669e-06)
(1.07439 -7.50735e-07 1.04791e-05)
(1.07432 -9.71822e-07 5.70194e-05)
(1.07426 -1.17241e-06 0.000124694)
(1.07438 -1.87393e-07 -4.46959e-06)
(1.07439 -4.07044e-07 -6.43398e-06)
(1.0744 -6.4939e-07 -8.0966e-06)
(1.0744 -9.30933e-07 -6.02644e-06)
(1.07439 -1.26454e-06 1.04831e-05)
(1.07431 -1.65993e-06 5.70266e-05)
(1.07426 -2.02656e-06 0.0001247)
(0.444159 1.02875e-06 -5.41894e-06)
(0.444153 1.67588e-06 -6.13801e-06)
(0.444143 2.39071e-06 -3.44013e-06)
(0.444124 3.19352e-06 1.15673e-05)
(0.444079 4.09125e-06 5.96537e-05)
(0.444009 5.02687e-06 0.000163934)
(0.44399 5.75735e-06 0.000291246)
(0.444159 6.10899e-07 -5.43443e-06)
(0.444153 9.95226e-07 -6.16653e-06)
(0.444143 1.41367e-06 -3.49032e-06)
(0.444125 1.87567e-06 1.14877e-05)
(0.44408 2.38032e-06 5.95381e-05)
(0.444009 2.89399e-06 0.000163782)
(0.44399 3.29049e-06 0.000291073)
(0.444159 2.03271e-07 -5.44184e-06)
(0.444153 3.30661e-07 -6.18013e-06)
(0.444143 4.68419e-07 -3.51388e-06)
(0.444125 6.19221e-07 1.14514e-05)
(0.44408 7.82103e-07 5.94869e-05)
(0.44401 9.46057e-07 0.000163717)
(0.443991 1.07185e-06 0.000291)
(0.444159 -2.00617e-07 -5.44185e-06)
(0.444153 -3.28057e-07 -6.18015e-06)
(0.444143 -4.6582e-07 -3.5139e-06)
(0.444125 -6.16586e-07 1.14514e-05)
(0.44408 -7.79353e-07 5.94869e-05)
(0.44401 -9.43061e-07 0.000163717)
(0.443991 -1.06882e-06 0.000291)
(0.444159 -6.08251e-07 -5.43446e-06)
(0.444153 -9.92612e-07 -6.16656e-06)
(0.444143 -1.41104e-06 -3.49037e-06)
(0.444125 -1.87298e-06 1.14876e-05)
(0.44408 -2.3775e-06 5.9538e-05)
(0.444009 -2.89093e-06 0.000163782)
(0.44399 -3.28744e-06 0.000291073)
(0.444159 -1.0261e-06 -5.41899e-06)
(0.444153 -1.67324e-06 -6.13807e-06)
(0.444143 -2.38802e-06 -3.44023e-06)
(0.444124 -3.19074e-06 1.15671e-05)
(0.444079 -4.0883e-06 5.96535e-05)
(0.444009 -5.02368e-06 0.000163934)
(0.44399 -5.75422e-06 0.000291246)
(0.142233 1.42644e-06 5.86695e-06)
(0.142218 2.21603e-06 1.19576e-05)
(0.142196 3.08577e-06 2.42946e-05)
(0.142164 4.04602e-06 5.10183e-05)
(0.142117 5.08031e-06 0.000106902)
(0.142074 6.10755e-06 0.000205609)
(0.142085 6.86372e-06 0.00031101)
(0.142234 8.48925e-07 5.80309e-06)
(0.142219 1.31685e-06 1.18503e-05)
(0.142196 1.82486e-06 2.41335e-05)
(0.142165 2.37646e-06 5.07889e-05)
(0.142118 2.95921e-06 0.000106588)
(0.142075 3.52791e-06 0.000205208)
(0.142086 3.94355e-06 0.000310549)
(0.142234 2.82387e-07 5.77246e-06)
(0.142219 4.37325e-07 1.17992e-05)
(0.142197 6.04349e-07 2.40576e-05)
(0.142165 7.84214e-07 5.06825e-05)
(0.142118 9.72471e-07 0.000106446)
(0.142075 1.15468e-06 0.000205029)
(0.142086 1.2873e-06 0.000310345)
(0.142234 -2.79915e-07 5.77242e-06)
(0.142219 -4.34911e-07 1.17992e-05)
(0.142197 -6.01943e-07 2.40575e-05)
(0.142165 -7.81767e-07 5.06824e-05)
(0.142118 -9.69875e-07 0.000106445)
(0.142075 -1.15176e-06 0.000205029)
(0.142086 -1.28428e-06 0.000310345)
(0.142234 -8.46447e-07 5.80297e-06)
(0.142219 -1.31442e-06 1.18502e-05)
(0.142196 -1.82242e-06 2.41333e-05)
(0.142165 -2.37395e-06 5.07887e-05)
(0.142118 -2.95654e-06 0.000106588)
(0.142075 -3.52493e-06 0.000205208)
(0.142086 -3.94051e-06 0.000310549)
(0.142233 -1.42395e-06 5.86674e-06)
(0.142218 -2.21355e-06 1.19574e-05)
(0.142196 -3.08324e-06 2.42943e-05)
(0.142164 -4.04339e-06 5.10179e-05)
(0.142117 -5.07749e-06 0.000106901)
(0.142074 -6.10444e-06 0.000205608)
(0.142085 -6.86063e-06 0.00031101)
(1.07422 7.42482e-06 -9.18958e-05)
(1.07428 6.84443e-06 -6.94675e-05)
(1.07434 5.93995e-06 -2.94038e-05)
(1.07438 4.9991e-06 -4.74878e-06)
(1.07438 4.12142e-06 3.32176e-06)
(1.07438 3.3198e-06 4.60801e-06)
(1.07437 2.61914e-06 3.77274e-06)
(1.07422 1.04248e-05 -9.21784e-05)
(1.07428 9.52975e-06 -6.97302e-05)
(1.07434 8.12592e-06 -2.96038e-05)
(1.07437 6.71215e-06 -4.8848e-06)
(1.07438 5.44648e-06 3.22748e-06)
(1.07438 4.32509e-06 4.54854e-06)
(1.07437 3.36667e-06 3.73209e-06)
(1.07422 1.44236e-05 -9.29616e-05)
(1.07428 1.30515e-05 -7.04114e-05)
(1.07434 1.08297e-05 -3.00717e-05)
(1.07437 8.68876e-06 -5.1635e-06)
(1.07438 6.88443e-06 3.05946e-06)
(1.07437 5.35945e-06 4.45012e-06)
(1.07437 4.08844e-06 3.66991e-06)
(1.07421 2.01943e-05 -9.50825e-05)
(1.07427 1.79193e-05 -7.21852e-05)
(1.07434 1.42424e-05 -3.11945e-05)
(1.07437 1.09784e-05 -5.75921e-06)
(1.07437 8.43731e-06 2.74478e-06)
(1.07437 6.39522e-06 4.27391e-06)
(1.07437 4.74568e-06 3.57568e-06)
(1.07421 3.26369e-05 -0.000100694)
(1.07427 2.73873e-05 -7.66624e-05)
(1.07433 1.96336e-05 -3.3777e-05)
(1.07437 1.38961e-05 -6.97665e-06)
(1.07437 1.0177e-05 2.17382e-06)
(1.07437 7.42277e-06 3.98062e-06)
(1.07437 5.30743e-06 3.43784e-06)
(1.07419 6.58057e-05 -0.000115415)
(1.07425 5.17117e-05 -8.77927e-05)
(1.07432 3.11305e-05 -3.94561e-05)
(1.07436 1.82911e-05 -9.2319e-06)
(1.07437 1.20099e-05 1.27403e-06)
(1.07437 8.21955e-06 3.57634e-06)
(1.07437 5.56822e-06 3.26375e-06)
(1.07417 8.00423e-05 -0.00014654)
(1.07422 6.3766e-05 -0.000110376)
(1.0743 3.79549e-05 -4.95581e-05)